LAMMPS data file via write_data, version 28 Mar 2023, timestep = 8600006

5835 atoms
3 atom types

0.16027145356354566 53.82746251545185 xlo xhi
0.16027145356354566 53.82746251545185 ylo yhi
0.18984268143365313 32.39015731856712 zlo zhi

Masses

1 28.0855
2 15.9991
3 1.00784

Atoms # charge

1 1 0.2902227253573725 2.8107025394372185 2.474640021275811 0.7133362105653971 0 0 1
2 1 0.005265803885812444 1.106988234391227 1.237782688722851 1.66963878505572 0 0 0
3 1 0.02393022337503597 2.3724331881814327 5.52643985517243 2.959489828433667 0 0 0
4 1 0.3068349018700564 5.134544228437672 5.401032035035525 0.48312122006063835 0 0 0
5 1 -0.04191819339688536 6.49537347096632 1.6536400444808133 1.6746774459652913 0 0 0
6 1 0.0184030681808951 5.187641085200995 2.8225190199301506 3.1531489288623535 0 0 0
7 1 -0.03368985104588663 6.3102465057529145 6.761969214424618 1.8620963497352045 0 0 0
8 1 -0.01474860359929451 3.8946436672997846 4.142384162211754 1.8648816074788797 0 0 0
9 1 0.2770994109984984 4.978927696538593 0.41079267486138993 0.5240533093466307 0 0 0
10 1 0.00457509607198401 1.0408947139605313 1.4836461249875577 6.8565894390911275 0 0 0
11 1 0.002217967754627868 2.392324893693573 2.8364151739647943 5.581502294946093 0 0 0
12 1 0.005164625790057858 3.7025387999836923 4.173286234053303 6.924472138972165 0 0 0
13 1 -0.002540683347359872 5.0449862932364065 5.532770812636479 5.670637433520181 0 0 0
18 1 -0.009147564279099581 3.7521004913602947 1.4761104859032315 4.335157738369278 0 0 0
15 1 0.005888636936075629 6.405743837343403 1.5332353556041831 6.96612429112687 0 0 0
16 1 -0.003831856741993794 6.449696305732574 4.205489517824931 4.433869901852422 0 0 0
21 1 0.003084322149517503 1.0532344737819752 4.140839515296382 4.24020297872036 0 0 0
20 1 0.01044760445398997 1.0240023762861712 6.830139638641261 6.902217942672965 0 0 0
14 1 0.00598624615570837 2.359249849463476 5.512578333231466 8.210165402192665 0 0 0
19 1 -0.007603427571317253 3.6662365654325235 6.826526267396736 4.365731164238333 0 0 0
17 1 -0.002293424442885168 5.086376476946815 0.1813035422746789 5.656472893333641 0 0 0
662 1 0.01005633875994508 2.378492122234982 0.17194751845947714 8.18630864095827 0 0 0
23 1 0.01350962421455309 5.056352731225319 2.8755900609009406 8.237324147807271 0 0 0
22 1 -0.01022497073687842 2.3575507558521513 2.880084552048642 10.790620783814289 0 0 0
774 1 0.2492079466828397 6.562824700373698 4.188955329792965 14.603565098102356 0 0 0
24 1 0.001672940532118229 5.023403867538133 5.551671853076207 10.823802139903632 0 0 0
25 1 0.001764786425027205 1.0068633696333968 4.165360924940959 9.47284092133616 0 0 0
26 1 0.004161147833932205 3.699387377208095 1.5301870869194534 9.498451814578805 0 0 0
681 1 -0.0007565420351564878 2.443392610442361 0.29762635704778573 13.236299320576935 0 0 0
28 1 0.006153545952023769 6.385160539711267 4.213406150580183 9.548403066666932 0 0 0
39 1 -0.0536358811493307 3.8316834021173634 1.5133262883342409 14.598002943998377 0 0 0
30 1 -0.001076267117553917 0.9734818731720425 1.539100808815803 12.022739603147286 0 0 0
31 1 8.719661361422659e-05 3.6704144808324926 4.231354586513412 12.127542240322553 0 0 0
38 1 0.2657525273420707 1.034934856171068 3.946278439479819 14.629848814925833 0 0 0
33 1 -0.02074444794506945 6.417911846075965 1.5470961342578593 12.088740313863466 0 0 0
41 1 0.739364585615379 2.704635843350405 2.9928223221509045 15.863740318554324 0 0 0
40 1 -0.01822751518941101 5.104081168903261 2.918497992458334 13.357049364219963 0 0 0
36 2 -0.5486911350227144 5.850932946643858 5.200977583971205 15.566617561789828 0 0 0
37 1 -0.007335602425341203 2.2888128872446347 5.534490242063313 13.452671193821203 0 0 0
35 2 -0.647045513999615 3.7110378996051554 4.1751156174771005 15.936051855963548 0 0 0
27 1 -0.005488795262262126 5.080477091293402 0.2133907378106997 10.773568387428424 0 0 0
42 1 -0.03636752406844425 3.67635924820946 6.82706519643996 14.769113294141238 0 0 0
32 1 0.0003655188350602523 1.0209872801974433 6.804506734077284 12.037165404470386 0 0 0
680 1 0.4105118656998757 5.029884632360752 0.18490603596360228 15.990354874608048 0 0 0
29 1 0.007124026439019486 3.6890254996615073 6.867064302844129 9.511697439881038 0 0 0
45 1 1.69640307798927 1.913122714925286 2.2678690401771884 18.59526164308023 0 0 0
46 2 -0.8045130161182341 5.083338293453305 3.241947434414077 20.311401305335195 0 0 0
47 2 -0.7133692188445439 2.33916583887015 2.142234089596353 17.102999226672512 0 1 0
48 1 1.660741419974502 1.103104684399828 5.096241343523261 19.201673202052877 0 0 0
49 2 -0.8197160613381492 5.436439652806658 0.9702559923438749 19.244151521082152 0 0 0
790 2 -0.8190201795894142 6.1245492322342265 5.33309318290206 19.238483880726474 0 0 0
51 2 -0.8745864124227248 1.783265212909409 3.792353823551592 18.762060242767834 1 0 1
52 2 -0.8155090784964401 3.052771928870147 1.7816513509790377 19.520347278802852 0 0 0
53 2 -0.7876625281759737 2.1205911775950956 6.2479707276105385 19.069331413150795 1 0 0
791 1 1.662453668260149 6.321925534466817 4.208332760954973 20.293030047686205 0 0 0
65 2 -0.8721516088857888 1.8916622249541113 0.7104636842280947 22.93795638027416 0 0 0
56 1 1.308532076348089 4.480342362718394 1.8390992837309101 20.067826595438664 0 0 0
54 2 -0.8738993939077307 0.5625662674397477 1.5535025757681742 18.736648374642606 1 1 0
58 2 -0.8132367748953908 1.1392905902641481 3.093090361352801 22.81047209996282 0 0 0
59 1 1.597314033759196 3.902942504041632 5.828703050239833 23.237745078259884 0 0 0
60 1 1.691346661295652 1.5682688000124165 1.9579133288456434 23.790900581769844 0 0 0
61 2 -0.781778212182125 2.8145430315763402 4.923308686166799 22.547751731894472 0 0 0
62 2 -0.8547318456487506 5.243729710895754 5.120741725541701 23.63665412156962 0 0 0
63 2 -0.7888949223936467 0.891715068053443 4.8233303642567185 20.745119043734654 0 0 0
66 1 1.286330724422538 1.373443507191617 4.473420760188401 22.17908805672607 1 0 0
817 1 1.697156539104358 6.727059438149641 1.7991860666459274 24.24284025589472 0 1 0
796 1 1.73128103967666 6.695011536638824 4.67273168839542 23.257878295550924 0 0 0
57 1 1.27929667207783 6.023925743033647 6.789974222527227 18.725353233273207 0 0 0
43 1 0.8261802380700287 4.549774020363722 5.40669026153125 16.396262503479743 0 0 0
804 2 -0.8953001938509952 6.728614318249005 4.647536947861235 21.71595260532011 0 0 0
64 2 -0.8567765690075954 4.30943323895743 6.778865995243413 22.100952846083203 0 0 0
89 2 -0.8909286713553326 5.317950046483337 2.505749234912697 29.043805856293698 0 1 0
91 2 -0.7175151694625113 0.9452442410754225 2.1161810553425733 30.027645671478215 1 1 0
69 1 1.764878745664963 4.293006953744674 3.0263840067481436 28.01364439572182 0 0 0
828 2 -0.8228360422553738 6.361198777672725 0.47740718138878036 29.88714192761095 0 1 0
71 1 1.681197464289877 3.9967525429776223 1.4664603223838615 25.400006634361866 0 0 0
72 2 -0.8992196463005374 4.380675905904805 2.2853118775778674 26.661531134782923 0 1 0
826 1 1.651331358405801 6.680456521872147 1.9169567025008027 29.470142582444332 0 1 0
81 2 -0.8558113542076867 2.8749824721710207 2.178750091518221 24.597961242617114 0 0 0
75 2 -0.9163252224955686 0.5548892341257234 2.0956472708065403 27.531932030760476 0 1 0
95 2 -0.9045670423387305 4.591386154701535 4.53045051426579 27.859291326408826 0 0 0
734 2 -0.8094042553225131 2.2268420966504228 0.5823391974856528 28.725763610828043 0 0 0
93 2 -0.9502628620506059 2.831318840383216 2.9171669479233744 28.484271270465314 0 0 0
88 1 1.090148653855678 3.651866606585344 6.160114827221951 31.008530580344907 0 0 0
67 2 -0.8669432889400158 0.5443127194811547 1.7009955278574662 24.934498258212205 0 0 0
829 2 -0.8870837498741676 6.543141701607834 5.981613850525924 28.761258954689712 0 0 0
82 1 1.619742152298993 1.6189406628438703 1.989854863628104 28.642696725750397 0 1 0
83 1 1.720785770784832 5.066406915552782 5.921186738443943 28.340271083902124 0 0 0
84 1 1.169178328963831 0.8644244155023395 5.81236346091665 28.685602476943693 0 0 0
85 2 -0.7945601814610579 4.310611816414228 6.324247276177585 29.625304829420326 0 0 0
86 1 0.7278108134304926 1.8839477486383647 3.653477798406842 31.141328890015256 1 0 0
87 2 -0.6988020697776124 2.5833883197915326 5.056555398382932 31.227466960393492 0 0 0
77 2 -0.7966187721671907 3.1596057372816952 6.542384076074135 24.421783029278046 0 0 0
90 2 -0.5536504121224644 0.8435793033273348 3.925454346262018 32.29150196403557 0 0 0
92 2 -0.5915974731529581 6.0944379981694015 4.285521670483549 32.15839881196153 0 0 0
94 2 -0.4786690828398975 3.875544423467952 1.4697395595387 32.334049488787045 0 0 0
74 2 -0.8588390171501779 5.2306208584374945 1.4321541440805416 24.44675587662188 0 1 0
68 2 -0.8220655116079287 0.344658314002572 5.709977595668793 27.249811816267528 0 0 0
96 1 0.01053030030158372 1.0538217022045295 6.983345634233807 1.648465813287977 0 0 0
97 1 -0.04841807295972388 0.9340487036134436 12.16626822863599 1.9743948199568437 0 0 0
98 1 -0.03877684765137689 2.401269706087888 10.833351623904402 3.1300463424280354 0 0 0
99 1 0.2718768085730169 2.42275700611405 8.33271560779748 0.4553583898098631 0 0 0
100 1 0.006355908781060106 5.063122103934984 8.144897627442273 3.1551388732978993 0 0 0
101 1 -0.06465074814136171 3.789166759896128 9.472481502532775 1.8431222607327427 0 0 0
102 1 -0.05145169424396515 6.261980756457129 12.272152647989401 1.7540479461019005 0 0 0
103 1 0.3148675111976473 4.781826095047748 11.106646204720251 0.4929331281548672 0 0 0
112 1 -0.0006598880413506217 1.0170805372202147 9.54815421353032 4.392074463716716 0 0 0
105 1 0.001885735970081799 2.360001333539905 8.194389506460952 5.655014463826416 0 0 0
106 1 -0.01775563283100769 6.366331200500386 9.571061757693602 4.391901498690288 0 0 0
107 1 0.009019955691974346 0.9870652156099321 12.2444967412753 6.955976301485282 0 0 0
108 1 0.01016661773059725 3.6850176209406897 9.554680040735414 6.948415352936944 0 0 0
109 1 0.0002908369866792548 3.6684356159836127 12.25399389605839 4.3931052074333765 0 0 0
110 1 0.006311559795558294 6.3334211009822114 12.259870805598116 6.9868298495233665 0 0 0
111 1 0.008520771658204057 5.0213316215590345 10.915353167625174 5.673877178261553 0 0 0
104 1 -0.07668326898472555 2.1785696634212144 13.482879444750056 0.525863223761559 0 0 0
113 1 0.004192715682749266 6.367363475834082 6.8850938179923284 6.977053251069444 0 0 0
121 1 0.01348694008228749 2.34135210012195 10.90202834063846 8.231099853628196 0 0 0
116 1 -0.009779698991767304 2.356054466071283 8.203682012479716 10.803685739994727 0 0 0
117 1 0.002927442306720714 1.0119702339314722 9.520370218958508 9.474828300354181 0 0 0
118 1 0.001455054153846995 0.9113982385451281 12.246243116582765 11.997404545623642 0 0 0
119 1 -0.004468254591794958 3.654974943659322 12.246382236044573 9.563722626437935 0 0 0
120 1 -0.0002893030434725288 6.342842515797607 9.577831007767609 9.56203808810015 0 0 0
132 2 -0.7046853931452814 0.5272831726050824 11.955713466719866 15.955856669227503 0 0 0
122 1 -0.00482709472232011 5.000424861899283 10.91193781086258 10.86676217464509 0 0 0
123 1 -0.002478250380394662 3.683033272531623 9.529813171537155 12.144478347000275 0 0 0
124 1 0.01289430434075552 6.318026712535637 12.266257659938438 12.178977099785843 0 0 0
125 1 -0.06006960817599755 0.9562113660572216 9.552106869879559 14.50487634345048 0 0 0
126 1 -0.0328646833568093 5.020569231204818 8.175798336226531 13.494178316482138 0 0 0
127 2 -0.6800389384722645 5.422094691319382 10.647564617694698 15.258601165958668 0 0 0
128 1 0.02249542186475039 2.275642889875871 10.951053311400633 13.289340062386874 0 0 0
129 1 0.6856102211602326 2.4817410357122593 8.465177066606268 15.819619147125396 0 0 0
130 1 0.04732255689675924 3.45581899285316 12.331744446481208 14.69675002048493 0 0 0
131 1 0.6842563055101412 6.395296657043406 9.53218487895555 14.78143229162523 0 0 0
34 1 0.00381666890324895 6.33883419037933 6.922182363229277 12.109066833096731 0 0 0
134 2 -0.6817072676240444 3.2889462553799556 9.722956204696311 16.271292698618595 1 0 1
115 1 0.009920873005592284 5.02682870099538 8.228575698684125 8.254981739562448 0 0 0
162 2 -0.7860279719549004 6.224305752731251 8.428833561637152 22.386090211935738 0 0 0
135 2 -0.8129419379849971 0.7942392861137436 11.020360307564664 19.66797351615462 1 0 0
137 1 1.314852406575655 2.6802802867830073 7.563005501275669 18.501692047039683 0 0 0
138 2 -0.6453023579164068 2.0514043949172707 7.641721879877363 17.067609396480588 0 0 0
139 1 1.586146206930013 4.366019075472832 12.35357681196669 19.044748345351607 0 0 0
140 2 -0.7817591775436989 4.469296410660039 11.836230242926808 17.560129845703724 0 0 0
141 2 -0.8768610955790437 4.341078935324556 11.207448663166515 20.05426658127244 0 0 0
142 2 -0.8115539951638424 5.834583429577226 7.590276436227182 20.0291585974331 0 0 0
143 2 -0.7610844890274501 1.8548662789582409 8.707234354133792 19.174610609468125 0 0 0
144 2 -0.7608447196847016 3.0247525472711745 13.161136290777813 19.216043235293437 0 0 0
145 1 1.375371494424225 1.1760074885122327 12.481661127847824 20.057326759901976 1 0 0
146 2 -0.7897659041328559 5.695650240816068 13.136607863530603 19.304261368591664 0 0 0
147 1 1.638804279725437 0.5691437383405068 9.46338175408364 19.67842226170721 0 0 0
158 1 1.629490727098328 5.164958670146894 7.844301360722987 21.4107081647549 0 0 0
895 1 1.052054007483893 6.658999936460435 9.83358511067487 22.85741144598768 0 0 0
160 2 -0.8806553390180547 1.3155376067932858 12.11164242835398 24.008667875338304 0 0 0
151 1 1.65915545265975 4.282091611738705 10.569115551564176 21.445792453044948 0 0 0
152 2 -0.8630826198544829 3.075755652178028 10.981374804785924 22.33258822994714 0 0 0
159 2 -0.7830408607620079 5.589386735266483 10.768987811766614 22.266487488033988 0 0 0
154 2 -0.8257227009287902 1.492653515740023 12.637881207609267 21.55399656548117 0 0 0
155 1 1.725640229282992 2.2839128544330465 12.222516605136823 22.812258104764908 0 0 0
156 2 -0.8272019042728166 4.215242971150182 9.046143746531918 21.204450397895783 0 0 0
157 2 -0.8886382552634672 3.445540466079083 13.124469748185943 23.283229139153228 0 0 0
150 2 -0.7424762509671871 0.6642128186873083 7.670992423011004 23.116438132085136 0 0 0
148 1 1.068549737640986 0.5614316272050471 13.399097226792705 16.595151248093735 0 0 0
153 2 -0.8036569909896344 0.3000617588164602 8.93895031880418 21.11305092204656 0 0 0
149 1 1.128681495416692 4.3284173851753724 10.878657533731745 16.341021155712237 0 0 0
55 2 -0.6683393939881239 4.6303112146495415 6.8695049277965 17.974786817624647 0 0 0
163 2 -0.8383415577382894 0.9498226449026892 8.385119944712988 25.38988922621149 0 0 0
167 1 1.372526375902974 4.043201841501128 7.574401296396011 26.02059019816606 0 0 0
165 2 -0.6924658881345612 5.0727255975140615 8.394418727752488 25.219580209280355 0 0 0
166 2 -0.8340777207408239 3.040958393810316 8.596735705074122 26.57634339512326 0 0 0
70 1 1.31769580372758 1.1147646475469082 7.146070150045764 24.49835357539178 0 0 0
168 2 -0.8621320203557304 1.6843236800714148 10.76281592623953 25.968323362882995 1 0 0
169 2 -0.6485909947615061 5.643760692860487 10.718382791703801 26.191991660136548 0 0 0
170 1 1.710741045646314 1.6641152864254636 9.285454359915217 26.41536827128483 0 0 0
171 1 1.133571457918241 5.8058074907178865 11.178061880941147 27.701294032930207 1 0 0
172 1 1.742186789615175 0.9261968256472615 12.022199961791735 25.500420544837834 0 0 0
173 2 -0.8389290623504093 0.8457752663789464 9.25133400858548 27.72019885666622 0 0 0
174 1 0.972116461170437 6.144705482322926 9.51626007950959 25.275953121757368 0 0 0
175 1 0.8568474714479732 3.8676512720575897 12.90858900268534 29.179741112565754 0 0 0
176 2 -0.640566705408644 1.3468405554436977 9.652245685444514 30.111524925572724 0 0 0
177 2 -0.5941850996488837 3.424469930291603 7.469228056139591 31.829050075280502 0 1 -1
178 2 -0.6143597464153573 5.706206614371571 10.84302801026482 31.473135840824618 0 0 0
179 1 0.3314084220377494 1.7949322838482924 10.174480004517225 31.488317830297913 1 0 0
180 1 -0.007513550181188947 3.209896508277912 12.014525973724801 31.298860809236473 0 0 0
181 2 -0.8029410715333649 1.1552280821063983 7.2695193626586265 29.097867113272198 0 0 0
182 1 1.639289848190887 0.5889082417583232 8.713466389830272 29.136161849332797 0 0 0
923 2 -0.6888882445320444 6.518789291588821 10.041459574466822 28.5105855453845 0 0 0
184 2 -0.6314703759965313 4.480763318485321 11.674789057057769 28.420637604729905 0 0 0
164 2 -0.8050263480134962 1.162501967746253 13.271852998508296 26.39530748219516 1 0 0
185 1 1.186687102472685 6.708684963796877 9.995493891834837 30.648762007986882 0 0 0
183 2 -0.6787585440068657 2.525056351857999 13.390251589488496 28.533412223423063 0 1 -1
76 2 -0.8291850102433458 4.79449146227607 6.901255035494996 27.178207230518026 0 0 0
922 2 -0.6454949412662341 6.86766333922634 8.789395845149025 31.622665173945236 0 0 0
186 1 -0.002603358037088124 2.2318093376411103 16.273994246463076 3.1143902131987113 0 0 0
187 1 0.03418185931479162 0.9894849201562944 17.554263157482396 1.6972259742255873 0 0 0
188 1 -0.01480919635538533 2.378921239128407 18.880317771613527 0.45032152856316265 0 0 1
189 1 -0.009669728858863018 3.4558235253656244 14.92786462439467 1.7784098676836453 0 0 0
190 1 -0.01200195581080972 3.7196497857591946 20.13079586706937 1.8011559926458454 0 0 0
191 1 0.02299516404660349 6.294167248772556 17.414216534803675 1.6719360788999167 0 0 0
192 1 -0.009737314040692363 5.053431571145317 18.798536910051784 3.06706071166113 0 0 0
204 1 -0.0004202564219486157 0.9136794625558151 14.91000672886689 4.393474503845813 0 0 0
194 1 -0.03782843314060087 4.853594347618842 16.119831074497235 0.4222237760201198 0 0 0
195 1 0.001196432355653261 4.9857229867801385 16.255851640276955 5.696121568574321 0 0 0
196 1 0.0029730541415912 6.296229740589811 14.90943219944302 4.367084717516545 0 0 0
197 1 0.006333078565063807 6.308026184644705 17.620100268334497 6.990623485410467 0 0 0
198 1 0.008830959859412148 2.3249876010773676 18.92611806703701 5.683156519536008 0 0 0
199 1 0.003440816915118057 0.9585951728473852 17.60275411333117 6.96619297859042 0 0 0
200 1 0.01139560313798918 3.6384679616707087 14.935553220794892 6.9866201617740575 0 0 0
201 1 0.009803773972931733 3.6403800029477953 17.5647154386313 4.386531938614408 0 0 0
193 1 -0.01621820839077004 4.9138562958986185 13.625819954357077 3.047318025959284 0 0 0
202 1 0.007198884053530585 0.9762842412953592 20.2269152289233 4.3697294041000285 0 0 0
114 1 0.0104329276864147 2.30419129381853 13.595559628296645 5.667880067555854 0 0 0
289 1 -9.65174738265101e-05 6.272433808234549 20.272359295178482 4.372158189796134 0 0 0
207 1 0.006402970459151315 0.9562937174977215 14.949626073220577 9.544776613720638 0 0 0
225 1 -0.02583182425191036 6.2749407135932005 17.652177111826937 12.221110448669863 0 0 0
209 1 -0.0005477383716244524 2.29697792555633 18.970404027784483 10.922106950436104 0 0 0
210 1 0.0002168293344300756 3.6344519350302313 17.627856207776134 9.610710242265023 0 0 0
211 1 -0.00389590918926605 4.9655277875859225 16.285160519775662 10.913912635820816 0 0 0
212 1 0.005989916077451155 6.300058655768761 14.961185417009677 9.59445349249475 0 0 0
222 1 0.6852489148048618 4.620221749251931 16.02811151803547 15.951114109735569 0 0 0
214 1 0.01426099327447098 0.9284910551162157 17.611010894927336 12.172287585928393 0 0 0
215 1 -0.02342838587744057 3.646407802468895 14.92094664673834 12.221539461922852 0 0 0
216 1 0.2526502620556378 0.7928664926523149 14.705883403690295 14.605031865073459 0 0 0
217 1 0.004258460785215017 2.2091903264605244 16.213406946669707 13.488042777299802 0 0 0
218 1 0.02910276014742979 4.899125724424214 18.912800422907434 13.56563723549233 0 0 0
219 1 -0.07420347471156855 6.387844040088805 15.008716254321984 14.875864395992506 0 0 0
220 1 -0.06195801131432434 3.4188149636863496 17.623161836525814 14.833478838384647 0 0 0
223 1 0.2193385546990028 6.508084702493297 20.110205676835253 14.749452147873512 0 0 0
208 1 0.001043494926849679 2.322289046244576 13.620956329622238 10.837247964943725 0 0 0
239 1 0.6964899197242904 2.0793730908335566 18.966108319298993 16.168461140164244 0 0 0
213 1 0.006259492848254507 4.967023424482633 18.960127697584507 8.292159443564218 0 0 0
206 1 0.0002871299274970068 2.314126860726331 16.287368056361792 8.281857436418539 0 0 0
205 1 0.009432848401573261 4.983850172362611 13.60078383186732 8.282166178597931 0 0 0
133 1 0.01781264324468316 5.02823999182939 13.601123374788905 13.554634462240534 0 0 0
226 2 -0.6639512139577555 1.9497592534111685 16.162603494150343 18.36171030451079 0 0 0
227 1 1.232986898243325 2.766203994323029 14.872451193461997 18.038115999344594 1 0 0
228 1 -0.1005632140257926 0.7871854504128175 18.590414188803994 20.207573495903596 0 0 0
229 2 -0.7853889897390257 5.449571604474025 17.132932065045637 19.107371058229877 0 0 0
230 1 1.235656416266549 6.449282900836234 16.852321381792176 17.952014665943715 0 0 0
231 1 0.6921164333295384 0.7616634362010268 17.17855549280743 18.176601088554417 0 0 0
232 2 -0.6143750346491402 1.1732337382151372 18.322945628779177 17.23431091828458 0 0 0
233 2 -0.6540302544888447 5.535533621966144 16.996044966230247 16.703174752770078 0 0 0
234 2 -0.6547369309396719 3.9046990410307902 15.144970061166735 17.0121174559397 0 0 0
235 1 0.7612192429586203 2.7087792834938047 19.89417594040266 19.99004405957041 0 0 0
236 2 -0.7278970545114051 4.044356804500406 19.106890811044046 19.952452207976535 0 0 0
237 2 -0.7580300593923006 1.8324781393384617 14.108510251559798 17.07256871848996 1 0 0
248 2 -0.8089545676394585 6.168818715866028 18.12860996478492 21.228787420537408 0 0 0
249 1 1.604033290351193 4.888716367853628 17.869006765708242 20.355162833833607 0 0 0
240 2 -0.8834101720281559 3.4061179055616972 15.529550441451557 23.093479025280192 0 0 0
241 2 -0.8757612899084288 3.6722602745299824 17.920675924470412 23.63552628115827 0 0 0
242 1 1.729197583175427 3.1188801530528067 16.944655718045777 22.57541269176174 0 0 0
243 2 -0.8396923564213243 1.5953117128795695 17.10208074814806 22.572605086751018 0 0 0
244 2 -0.8788107118824457 5.517308027867425 14.41693625456308 22.486840589372967 0 0 0
245 2 -0.879703596308372 3.8668376688123187 17.084568571622388 21.225147812472162 0 0 0
246 1 1.749992763818631 4.328798184717942 14.364888094900957 23.474144805711813 1 0 0
238 2 -0.5812025856370875 3.0538285366448705 19.901384223055356 16.898059129101448 0 0 0
247 1 1.220249216760808 0.22062320741682237 17.722512518614312 22.366655841252918 1 0 0
250 1 1.611238124885908 4.448565176830579 18.357626312511925 24.909848399026636 0 0 0
251 2 -0.8382777925212646 4.745944360845753 14.663324536428958 24.94312278919262 0 0 0
252 2 -0.8541009878660888 4.295533527625566 19.87514392868939 25.180119209680363 0 0 0
253 1 1.243127259599757 3.5557665590338052 18.39311545808393 28.006186255465632 0 0 0
254 2 -0.7762744291704493 2.9785816087321266 14.884602103119379 26.639459539659455 0 0 0
255 1 1.390899217626641 4.371143990903147 15.397034224154847 26.247273538846997 0 0 0
256 2 -0.7651049640033013 4.098188692362887 17.47224343178512 26.153245494434195 0 0 0
257 1 1.337639248852664 1.8174130650904998 14.238601021787288 27.413537936086474 0 0 0
258 2 -0.7703222485796621 5.971894118226862 18.09260951461519 24.686496236904453 0 0 0
259 2 -0.7639792682054801 5.450625199521688 15.12627283370009 27.30718999211857 0 0 0
260 2 -0.6684950413494568 0.6879809860190579 15.962240388120506 27.99322398333901 1 0 0
261 2 -0.7647632919300797 2.630323428088457 19.609113831846038 27.856477262662043 0 0 0
273 2 -0.5884802643089619 6.4813222574972675 17.62427672267553 29.92506847972015 0 0 0
263 2 -0.6731946758386833 1.499714317797401 15.794525785620761 30.56898957363544 0 1 0
264 2 -0.6426391128267193 5.64438626557079 14.05545502303544 29.48919197091794 0 0 0
265 1 0.4142445541424428 6.324970744489066 15.001039978214767 31.244680616211784 0 0 0
266 1 0.9318660832502732 1.411924601697146 16.618700635751807 29.230829186503417 1 0 0
267 1 0.04392171705391815 3.5151559506057057 17.38760042293645 31.35350150743291 1 0 0
268 1 0.6376090011430482 5.259184301403936 18.47880449181636 30.367260064799634 0 0 0
269 1 0.7115797808394524 0.7658684410906846 14.768140700605144 31.489928253047733 1 0 0
262 1 1.158390164425404 6.479218102672134 14.39563071317056 28.2114228929 0 0 0
271 2 -0.6427556809903101 4.554452176337019 18.97188708849267 29.065215962238526 0 0 0
272 2 -0.7344714334528113 2.7255081862931805 17.367964436686414 28.831274933869985 0 0 0
270 1 0.6063782479231016 0.27440496586133095 18.633481153178238 30.071358921314598 0 0 0
274 1 -0.08132565246877914 6.199800793749323 20.270076996144578 31.383341185098 0 0 0
276 1 -0.004100065055655681 0.9789778649049774 22.72871505763275 1.6511968070931384 0 0 0
277 1 0.003733161659435012 2.3440495849754344 21.508541044824657 3.0440013779509574 0 0 0
278 1 -0.005475561584687226 4.83787130308876 24.426740248822973 3.0563855373652724 0 0 0
279 1 0.005713605017963946 3.44851043924389 25.709234743942616 1.7362280583749756 0 0 0
280 1 -0.06134002884700802 6.135586340744392 23.091061058946206 1.77044988938712 0 0 0
281 1 0.01813874349710825 4.910390845454518 21.60627100510643 0.4880079735202821 0 0 0
282 1 0.03516519964512775 2.3463693581577063 24.167288915849014 0.4453495882549212 0 0 0
283 1 0.009497477939028186 0.9635652224038569 22.942624611487794 6.964697001938022 0 0 0
284 1 0.0008577252086545487 2.2644577100527137 24.281232927143456 5.636119646218084 0 0 0
285 1 0.005995151393216505 3.629327563626624 25.63052333260329 6.933953334446243 0 0 0
286 1 0.01058895818448422 4.951751940067368 21.63989832925375 5.653445694602841 0 0 0
287 1 0.001590993172052808 6.316443809097002 22.99526357424498 6.924022090011015 0 0 0
288 1 0.003422547222103146 3.603503206612338 22.95507097369147 4.3310967661110045 0 0 0
293 1 -0.01335644449140991 6.311131710136442 25.7309877512399 4.271364898022533 0 0 0
294 1 -0.0003580902792977639 0.8616606866813102 25.534604975048918 4.309170238646792 0 0 0
371 1 0.003895143999757079 2.183682864209197 26.95606391107895 3.126204525469591 0 0 0
203 1 0.00303743698771549 3.641446539941533 20.29248745064041 6.975987045569053 0 0 0
291 1 -0.002294639771210388 4.986336255524452 26.98906828407767 5.6568209077517615 0 0 0
221 1 -0.04055959836272888 0.7693632150708265 20.351364874660174 14.88494946618268 0 0 0
296 1 0.005910464439962168 3.658202102884861 22.964840838369764 9.57308479219358 0 0 0
309 1 0.008869426876747362 6.421261743902882 25.684010538832233 14.775152850788963 0 0 0
298 1 -0.006411277330466827 2.3194530178712167 24.303917873235587 10.865192973154642 0 0 0
299 1 0.001274629738281415 0.9728613226439787 25.634548661849465 9.55380758652609 0 0 0
300 1 0.0003291901759795365 4.975052033675253 21.63581261252591 10.925391593591975 0 0 0
301 1 0.01018275940048489 6.359260372901865 25.649076014108495 9.523570308292715 0 0 0
313 1 0.6705957657222119 2.6888118592697925 24.747992562703278 15.92328592801783 0 0 0
303 1 0.008086675915532616 6.390473337964624 22.96810321611333 12.180908728052122 0 0 0
304 1 -0.01082876446820389 3.715314925914994 25.645678115459415 12.108956363433187 0 0 0
305 1 -0.02110805913009804 0.9675627413394419 22.96880433380491 12.178811819152589 0 0 0
306 1 0.01415069845782243 2.240232127368155 21.66165686577403 13.597714434869875 0 0 0
307 1 0.2470899257499944 1.1358951495360794 25.637382917235886 14.522844290592221 0 0 0
308 2 -0.491214950939769 5.525975030346147 20.8053414585284 15.717169971578018 0 0 0
311 1 -0.05771599858831194 3.7177565511531108 23.02727321315348 14.792987760430362 0 0 0
312 1 0.02678748953549207 5.079579158369989 24.32698897978925 13.448116101572035 0 0 0
5417 2 -0.5996459501036431 0.3186244426576526 26.63493568708774 15.407892641750006 1 0 0
302 1 0.007097777601890648 6.297664777764409 20.320857499173886 9.576255884042133 0 0 0
310 2 -0.5761030313465383 3.849878819674373 25.76976132539851 15.78822026874953 0 0 0
315 1 0.4371421156773359 4.918483980244433 26.86053761051714 16.06401966355189 0 0 0
290 1 0.005589043033973763 2.312859770725235 21.624732502096514 8.275313096514584 0 0 0
224 1 0.00331270931782509 3.6046323022022833 20.322836405500716 12.267468247416739 0 0 0
297 1 0.00822543812083696 4.981110426038175 24.310542611360425 8.249366495865182 0 0 0
292 1 0.008425438126991709 2.309646597113884 26.971576119515092 8.25171645686157 0 0 0
295 1 0.0004360951014764775 0.980655580062218 20.287964306587423 9.57661772549262 0 0 0
316 2 -0.7682129830851914 2.2507136415665525 22.050477081993947 17.945086664327782 0 0 0
317 2 -0.8342592829083576 5.771665594708422 25.564596526291794 19.7453558427886 0 0 0
318 1 1.530762922093684 1.633893290290227 23.412490468774248 18.370422114873065 0 0 0
319 2 -0.7189018173197114 2.036590193505555 24.439258903793938 17.283249681350068 0 0 0
320 1 0.6749934115183699 3.3576650344034378 20.97831888553476 17.96353729495631 0 0 0
321 2 -0.9003296760561409 2.0107853644886755 23.87205650183983 19.807274848408188 0 0 1
322 1 1.558797670899013 5.638286668877507 24.035530569347575 19.752225310355435 0 0 0
323 2 -0.669864022231387 5.67710246612609 23.6857043997971 18.206581875396427 0 0 0
334 2 -0.8971244752412575 4.363589733034464 23.71372747072034 20.533679434158078 0 0 0
5439 2 -0.874777594092243 0.5981603096379826 21.786190857489682 22.60653128796929 1 0 0
335 1 1.726744021877547 1.4466825929562102 26.20615561836724 22.43695111212045 0 0 0
333 2 -0.8985870585059348 0.8619070256708636 25.503758109481645 23.68890648079825 0 0 0
328 2 -0.906793214516476 2.5836385525087024 25.411832009236345 21.735092406670898 1 0 0
329 1 1.649332600464881 2.153504839622899 21.612067700727724 22.46764167954793 0 0 0
330 2 -0.8733463308212166 2.6347398165537603 23.017237498063814 22.074660566140142 0 0 0
331 1 1.721530885672923 2.953469929112965 24.086380652254427 21.018551580040764 0 0 0
332 2 -0.8790881184199465 2.7560111074391767 21.238965880140757 23.8406359776506 0 0 0
325 1 0.3328715773799217 4.843205847657907 21.96671376697497 16.4719300842123 0 0 0