LAMMPS data file via write_data, version 28 Mar 2023, timestep = 8600006

6257 atoms
3 atom types

-0.00033331723492224796 53.98806728625044 xlo xhi
-0.00033331723492224796 53.98806728625044 ylo yhi
0.09347981895482249 32.48652018104583 zlo zhi

Masses

1 28.0855
2 15.9991
3 1.00784

Atoms # charge

1 1 0.3435775710077815 2.6107713058611295 2.5033057189014962 0.4744183951049635 0 0 1
2 1 0.01680882437695964 1.0125406576444544 1.3449810421322033 1.6287541686092375 0 0 0
3 1 0.00978385404083772 2.154665313194079 5.48490397464181 3.041491962462705 0 0 0
4 1 0.0007533211945166124 3.5470216294955415 4.018669193798997 1.9328931392826587 0 0 0
5 1 -0.08819890425511959 6.152379609979799 1.566651945387204 1.6643032481579114 0 0 0
6 1 0.02939332777470106 4.952426756917629 2.7523073460708227 3.138980544366108 0 0 0
7 1 0.2934957631362823 4.678784128850459 5.602842794529606 0.7099083148855686 0 0 0
8 1 0.2617939758665997 4.665561429835759 0.23113752696531076 0.5859297092000293 0 0 0
19 1 -0.002716472052874987 6.300013387530516 4.153961905481385 4.331707558022125 0 0 0
17 1 0.004496966641043161 6.2549391268742855 1.4167438257471332 6.859702550024642 0 0 0
21 1 -0.002716783901328249 0.8592600664710729 4.097810660210293 4.3095564195614235 0 0 0
12 1 0.003958068896414535 0.8883197508061232 1.3585426083678647 6.849332218981543 0 0 0
13 1 0.003089816440694795 2.215640976705681 2.752125067599293 5.596800404595575 0 0 0
14 1 -0.007784814307821124 3.5457782630736663 1.3823321582070658 4.3335662113595745 0 0 0
15 1 0.001474204987686863 3.5734631378033126 4.092301121702245 6.8776913442288885 0 0 0
16 1 -0.005148106807325956 4.92088096533181 5.466452287987307 5.6230775209888275 0 0 0
20 1 -0.003745747271488964 4.905223098194936 0.043802452578150027 5.587994127612632 0 0 0
695 1 0.001650329831582212 2.1804669128607266 0.019879122524837065 3.0751627771199948 0 0 0
10 2 -0.477713138857714 3.6327413892314677 1.3440012679791629 0.13035221860236662 0 0 1
18 1 0.00974306254511046 4.9104390412427135 2.7366309880735917 8.16524075155184 0 0 0
24 1 0.006601039071561836 2.220153054619019 5.418350787997469 8.180137984286372 0 0 0
22 1 0.007977381997008412 2.2353594837944124 0.006801615654496837 8.129267787554467 0 0 0
23 1 -0.01430293877726503 2.245355590639788 2.6691285900825132 10.762295245357155 0 0 0
39 1 0.01939808256896238 4.994951333836286 2.5670652579428896 13.233912787829025 0 0 0
25 1 -0.001491524949803716 3.5893315961910073 4.020879680378373 12.078591532052524 0 0 0
26 1 0.003402865829928881 0.906179552182888 4.017109954911146 9.4479819013584 0 0 0
27 1 0.007175157884881676 6.25188862314073 4.109206007980423 9.441379725441774 0 0 0
41 1 0.7459664169610271 4.633573633161725 4.831019483199958 15.842375661828974 0 0 0
29 1 0.0120194485570681 4.897339567288279 5.416310884293149 10.769808160528866 0 0 0
30 1 0.007600801197713739 3.582916919200392 1.3440911637736837 9.432264984699255 0 0 0
31 1 -0.02173645850191341 6.341159925508099 1.3346345268102464 11.881827514395152 0 0 0
32 1 -0.004150723944512207 0.9377267965955512 1.2248882027554466 12.010317819984117 0 0 0
40 2 -0.6602717780854357 3.674766245781821 3.6631062782504076 15.574385533283438 0 0 0
34 1 -0.04099442196195139 3.801041005533929 1.1062735057948105 14.603131847756375 0 0 0
35 1 0.7443854977628424 2.636832370650836 2.5716487269240207 15.885210431716077 0 0 0
36 1 -0.00684953229410136 2.1529062934465593 5.330634539686958 13.383054145276787 0 0 0
37 1 0.2673561250445461 1.112430801511855 3.5212328823235737 14.414214206122832 0 0 0
38 1 -0.04040656257712945 6.297596024154093 3.9338861364023345 14.531441910980087 0 0 0
44 1 0.2011686828522899 3.237697270275812 6.511728973409199 15.06548686947748 0 0 0
43 2 -0.6639848050946491 0.19708704754561052 3.876659619948312 15.602565666329957 1 0 0
33 1 -0.01023413545651725 0.9214300940081821 6.675554215175316 11.98791688893195 0 0 0
46 1 1.513319950930031 2.3559482534432883 2.3169098273498556 18.903478346808654 0 0 0
47 2 -0.7096244201771316 5.126236119877385 5.029106013422198 17.289807345614612 0 0 0
48 2 -0.6746347544071896 2.7614389481174344 2.1063116206567147 17.380299546616968 0 1 0
49 2 -0.8233716585761505 3.4534063299532276 2.114004151223597 20.020232162363808 0 0 0
50 1 1.177222839250885 0.6920239072347216 4.857483361905791 19.231722138479153 0 0 0
51 2 -0.8535709735425516 1.1266796196128046 1.3972838025355698 19.151846378065624 1 1 0
52 2 -0.7494480991691581 1.8342887314921166 3.799685845505511 19.06942207139214 1 0 1
74 3 0.4101388301674092 2.3010422112589763 2.3790890731128984 21.60776629404191 0 0 0
73 2 -0.7794730183298048 1.9537243595078462 2.747667488539641 22.463282263009052 0 0 0
75 2 -0.6999989140686255 0.9467078374709053 5.023594957155042 21.50951111221594 0 0 0
72 2 -0.8123226839571943 1.828293145320531 0.33266055411442375 22.927781349908642 0 0 0
55 1 1.62143373285874 6.071208260851744 5.972196099065101 18.087044637030505 0 0 0
175 2 -0.8173592853762596 0.20099644419958576 6.334959042512578 23.637505891959083 0 0 0
59 1 1.142214393859368 4.82680849475377 2.4029080653387878 20.682862208832145 0 0 0
54 2 -0.7950923405117657 5.907015129516778 3.0769465192312717 19.831307045145902 0 0 0
61 3 -0.06640654557877498 4.655036634813749 3.6775665397132444 21.549631626171553 0 0 0
62 1 1.49868285238815 1.9357233463562369 1.7248967293842772 23.64926814005592 0 0 0
860 2 -0.7253898658337262 5.930007738029937 5.378752299495573 22.830631645242732 0 0 0
64 2 -0.67987487369726 3.1306863789549118 4.77492822275296 23.852538080906715 0 0 0
65 1 0.8620241880692803 4.519930633687477 5.009238292003504 22.289643643619982 0 0 0
66 2 -0.8084726572420624 5.604141658695385 1.1831893871560137 21.279373891399587 0 0 0
67 3 0.3807292607684001 2.3407347187811673 4.375947659685326 23.31756069412668 0 0 0
68 3 0.4028680433928912 1.51166292507686 5.86887673156292 21.378641782910105 0 0 0
69 2 -0.7660349695309399 4.108708926433444 6.033944584577787 21.207026377183098 0 0 0
53 2 -0.7528428845644946 1.0593416213831264 6.377196175812855 19.46208954765977 1 0 0
56 2 -0.7752970294020346 0.24171883287880783 5.067100423283364 17.771428738040363 1 0 0
88 3 0.3600088141460721 3.463425427068052 3.933283269450271 24.33273746899033 0 0 0
71 2 -0.8969311718314976 3.3084412539196597 1.9566834086045748 24.372410618080167 0 0 0
76 2 -0.8663893131185633 4.307764048356875 0.6495843263408069 26.37034486504821 0 1 0
77 2 -0.7567773237871996 3.9257826957609527 3.09148589092288 26.578601283796075 0 1 0
86 2 -0.8022051655905604 4.180052326953361 6.407714227681331 27.880588014581257 0 0 0
79 1 1.50212476308051 4.391327317162637 1.915004075009314 25.49089581974152 0 0 0
101 2 -0.6211287148471955 0.5672923704377355 3.3011226904333935 31.46751107134601 0 0 0
81 3 0.3604098020392782 2.8900306872674513 3.0164312092330685 26.689399236041044 0 0 0
82 2 -0.8461020142322694 1.1009102490962377 2.1731822132450396 27.108137737393438 0 1 0
103 2 -0.6961721417001174 3.1865401589971687 3.0831509484861805 29.36177589394298 0 0 0
11 2 -0.6055930465092909 5.596527674378821 4.550981993332085 32.33678177240674 0 0 0
862 2 -0.8692995032882724 5.776789938837878 2.3155521166244935 24.90467339908384 0 1 0
102 3 -0.0252906218421161 1.1866538674407405 4.914902002775921 29.982665625471295 0 0 0
80 2 -0.8456739471414707 0.19574831112240573 5.403049642127734 27.770976088189432 0 0 0
78 2 -0.8699671031944896 0.7249763251712033 2.006850012313328 24.598905898835707 0 0 0
89 2 -0.8189621436588153 5.268309486641698 4.40396542280904 28.960311213800406 0 0 0
90 1 1.052602495540181 3.4067947572305317 6.314221616420027 31.28020173351436 0 0 0
91 1 1.180748616616879 1.3624629386607552 2.271257203533853 28.64179983281244 0 1 0
92 3 0.3790676865750367 5.463723778282733 4.683918882763961 31.309165584863347 0 0 0
93 1 0.7178468759345472 1.965621006965927 3.8555133167507925 30.938875566886555 1 0 0
94 2 -0.724458858675344 2.534930545307464 5.091857553002093 31.683960929382007 0 0 0
95 2 -0.7361530813347026 1.6461184815265033 0.9843561895516297 29.41219960519668 0 0 0
96 1 1.140713417064464 0.3851301388731212 5.933910145417856 29.182244411793825 0 0 0
97 2 -0.7890938545278944 5.551917852478161 2.0982013405593194 29.49986814615069 0 1 0
98 2 -0.8104068925178173 4.6649624990672764 6.290483834864369 30.36558325738785 0 0 0
99 1 1.605916511440396 5.241964652370692 5.95358038169055 28.93734944140082 0 0 0
100 1 1.266534431027324 4.6077022869848685 3.0360565811550835 28.723628767114356 0 0 0
178 3 0.07206890457791376 3.3590811343139357 6.393031723522231 25.59658951153114 0 0 0
883 2 -0.7733483975276865 6.657751613517912 0.07066409881993324 30.294603019609127 0 1 0
881 2 -0.8866700740273414 6.67405945179989 6.420150055216668 28.602369826181647 0 0 0
85 1 1.673188935510352 0.03510188154844415 2.305806264377407 25.955270082005136 0 0 0
105 1 0.2563315232518399 2.1651025645120168 8.41885750764132 0.5492714565938127 0 0 0
106 1 -0.04654381534858555 0.832119505976191 12.234412936981883 1.76621008734002 0 0 0
107 1 -0.04295991482492029 2.2281521767759873 10.851678876601088 3.0505934144378077 0 0 0
108 1 0.3221067504965396 4.703995357415766 11.155854056062122 0.7400367339153255 0 0 0
109 1 0.006476435484592716 4.956393761381871 8.10483212465448 3.12064524184208 0 0 0
110 1 -0.02684962450148268 3.661277949873412 9.453555510205671 1.834168885175983 0 0 0
111 1 -0.03466951046197905 6.333964906524071 12.27644311453272 1.826153586455961 0 0 0
112 1 -0.002761562562155102 0.8616840522181645 6.955558365438277 1.748112962838573 0 0 0
113 1 -0.03786731183818776 6.199572890015526 6.786444160250525 1.7870715880491492 0 0 0
122 1 0.01005031283886052 6.235968794059866 12.199168966505107 6.955742774479542 0 0 0
115 1 0.000280480443507175 2.2001254008301943 8.158411411746082 5.62696947525869 0 0 0
116 1 0.002211932171088914 0.8565082048654029 9.541229749089208 4.3484576983747525 0 0 0
117 1 0.01010686452613677 0.841480592401759 12.210264627133945 6.926796280520854 0 0 0
118 1 0.007834969457258679 3.552379384336361 9.49466996722613 6.926051036860841 0 0 0
123 1 -0.003967434935737771 3.5552771274658865 12.188341214991322 4.36645746349832 0 0 0
120 1 -0.008004237564678267 6.276963359560434 9.521901530228401 4.355505165305302 0 0 0
121 1 0.005403054612176161 4.909933328414256 10.847477155888962 5.649390621345886 0 0 0
796 3 0.1426390612860143 5.732398736741665 7.2242854632104265 0.3401773819979177 1 0 0
114 1 -0.05268769333749213 2.203880714318424 13.46443557999409 0.3986541542075777 0 0 0
126 1 0.001756517534674297 6.252836719675051 6.818013884225761 6.920880748889871 0 0 0
124 1 -0.005944363695460579 3.541624800590577 6.787628667013838 4.3537830379026765 0 0 0
125 1 0.008195442967944905 0.8762728449083481 6.785839871941291 6.909044591649623 0 0 0
127 1 -0.00103875120877548 2.231214120784618 8.103764975338384 10.761729788052815 0 0 0
128 1 0.001487833227795353 0.8749197651862004 9.470465798888306 9.485802427860232 0 0 0
129 1 -0.004430030729406981 3.5090300444522304 12.198043003061134 9.511935994239611 0 0 0
148 1 -0.00597080195954592 6.1894184955130225 12.174963908039098 12.081781383068206 0 0 0
131 1 0.0007502620793515893 6.24787924152195 9.497316745003204 9.516145598408967 0 0 0
143 1 0.6804522252058048 6.46291863412768 9.490381805915073 14.796821314070062 0 0 0
133 1 -0.009045362491407971 4.855620123297596 10.82569310592121 10.78830354582337 0 0 0
134 1 -0.01971504142081526 3.536505777393818 9.459476729189348 12.088151597921264 0 0 0
135 1 -0.0001434732926079013 0.7953528695875196 12.230396217601063 12.059674949822323 0 0 0
142 1 0.07839265309390572 3.4064774940718885 12.145551302148421 14.644958158988674 0 0 0
137 2 -0.4864062074054858 4.321517214014547 7.168417793979319 14.153384374416305 0 0 0
138 1 -0.0587485672814425 0.8979135847611392 9.439076012263069 14.597295547074408 0 0 0
139 1 0.2057675429533749 5.083378759603089 8.256717349765132 13.335493119060501 0 0 0
140 1 0.01459937352729273 2.1434226457508148 10.835068399232075 13.297193831284714 0 0 0
141 2 -0.6663468644802522 5.5727421740774155 10.579452192328645 15.47309382647279 0 0 0
144 1 0.7582143843424126 2.3239631366843607 8.423080710520415 16.116474086877243 0 0 0
136 1 -0.00765779444607155 6.257599563508918 6.79679359958672 12.016957543716536 0 0 0
130 1 0.01317595631399899 3.5657413144426715 6.764660735114955 9.470416837682425 0 0 0
239 1 0.006184664961674996 4.812265524718514 13.468419032122444 13.388714361960902 0 0 0
145 2 -0.7017022180721471 3.399247988754761 9.537564135012751 16.08664516096995 1 0 1
119 1 0.01017912364963371 4.905325167018364 8.151718671134077 8.214877399573247 0 0 0
132 1 0.01113643216808288 2.1944458185085525 10.846660399604641 8.201716440726953 0 0 0
174 1 1.197788947453666 5.782365451887188 9.418923653656362 21.885746772347648 0 0 0
150 2 -0.6968381357882482 1.70662175053876 8.044634469211132 17.500828849076658 0 0 0
151 1 1.621791549906492 4.450643391435464 7.243514140551764 20.277350477669845 0 0 0
152 1 1.493523249471282 1.7261975508640692 7.746861858898718 19.06697907732739 0 0 0
153 2 -0.867956545386219 3.1069076873144663 7.859996671349028 19.80035504580541 0 0 0
154 1 1.565037839962537 4.2129682243763495 12.71473509539545 18.66223618140049 0 0 0
155 2 -0.8072564922085471 4.163125711171979 11.990959926446076 17.29030351136364 0 0 0
156 2 -0.747876859724295 3.7839302308113494 11.618281889202523 19.67254201576083 0 0 0
161 1 1.013340159880107 0.3007462594075542 12.973401858512004 17.362155350097233 0 0 0
158 2 -0.7900375463361283 0.829352821269295 8.786477181996714 19.860657473011777 0 0 0
157 2 -0.8544870224188568 5.176458305920111 6.876616236569243 18.962391528212066 0 0 0
160 2 -0.8780614069134717 5.627857237950127 13.265106946864668 18.910710766208172 0 0 0
169 1 1.128196176251221 0.7133897034316601 9.806293763534875 21.03205913235254 0 0 0
162 1 0.6709158557399544 3.4837292882475714 11.1418848059854 21.107668736916565 0 0 0
163 2 -0.7211872983180575 5.499581914764848 9.346907583070438 23.355388637826778 0 0 0
164 2 -0.6456879548956106 3.25340631445169 12.451073479310134 21.91446292303094 0 0 0
1047 3 0.03457121632762459 6.298076511226037 13.299239649770877 22.878818818024282 0 0 0
166 3 -0.03564817394939665 2.1119287848147 10.414691653656874 21.129256912292913 0 0 0
167 2 -0.8212139138655941 5.3959582436985425 8.196031074762024 21.049073037251357 0 0 0
168 3 -0.05176665935397346 4.647872538622776 10.312246723038333 21.51058296315909 0 0 0
149 3 -0.0633666053155941 0.20489703025615458 12.803355836589018 18.879699048369066 0 0 0
146 2 -0.6363235229039013 0.23771621033740004 11.608391236784751 16.57331430559641 0 0 0
165 3 0.3045675670193128 5.696467632145458 9.321837461575424 24.288849871337543 0 0 0
176 2 -0.7567762183372384 0.03638472436119264 11.097989509022756 20.53138306312386 1 0 0
147 1 1.142758657263571 4.2985339878576605 10.77621051992256 16.349542441706234 0 0 0
266 2 -0.7186195278053477 1.0114539401874665 13.458826913573509 21.24949956166786 0 0 0
171 3 0.4938345824596233 2.001890940302303 13.421032264719098 24.3161565955273 0 0 0
177 2 -0.9103826871581446 0.8576882693219682 8.050124190506041 25.464608301324557 0 0 0
959 1 1.469237603737498 6.072365812724269 11.494580835041816 27.604306860822863 1 0 0
179 1 1.190902632867721 3.841896269986233 7.274901198821262 26.64916423582162 0 0 0
180 2 -0.8067392848084867 2.843923113016098 8.441368088263243 26.7820604744679 0 0 0
181 2 -0.8930408635809863 0.6993594583839599 9.181174926189179 27.755045280777416 0 0 0
182 1 1.710277706335765 1.4799511814406012 9.06984476458127 26.439183700941765 0 0 0
947 1 1.109940853667915 5.903681272387757 9.194542275000003 25.8298157109639 0 0 0
184 2 -0.8493035528943926 1.5145172095036052 10.540067960975765 25.9397734548544 1 0 0
185 2 -0.7180804967877102 5.158452292512427 7.889387729862152 26.146558309021888 0 0 0
186 1 1.523920750674798 0.8943577216206822 11.969638769890448 25.98510188593784 0 0 0
187 2 -0.7332007453152235 5.433997489061192 10.510996935305279 26.537750254199533 0 0 0
189 3 0.3743850900070378 1.3496598250731673 11.936933885749124 28.151596704350734 0 0 0
200 2 -0.7757493469513591 5.1292387410210045 11.931041650101047 28.791637352474904 0 0 0
198 1 1.613178180604627 0.5030088308655425 8.839862781732691 29.242135580430258 0 0 0
191 2 -0.6251440516308534 6.072950564094124 8.982180952813906 30.229194427631644 0 0 0
192 2 -0.6711910044057315 1.381876624437333 9.750803837705659 30.13650435904702 0 0 0
193 1 1.125515915510352 4.555217062878727 12.996048435838363 29.776714482190503 0 0 0
199 2 -0.6089625994696182 3.2287515229382673 7.498099575329053 32.258273408698344 0 1 -1
195 1 0.3239609813284539 1.7404165637628557 10.20232331023533 31.568424240748477 1 0 0
196 1 -0.02597379724898792 3.3143498115694325 11.922569706931435 31.49833193132988 0 0 0
197 2 -0.8113692240022184 0.9306286575271966 7.35529479829835 29.410658092463844 0 0 0
188 2 -0.7289709316530198 1.168051375356823 12.684827561508408 27.472174591778913 1 0 0
173 2 -0.7475239857923328 1.5605799146580281 12.858548785116156 24.938604754023295 0 0 0
194 2 -0.62247531296465 5.674952166002908 10.28506046724433 32.310779297389516 0 0 0
969 3 0.4166446569893451 6.505536926341349 9.055816691538558 29.366869680408982 1 0 0
958 2 -0.725908989933497 6.7430674340287515 12.661223719629767 26.804397278273623 0 0 0
202 1 -0.005088671852687694 2.2560441201030503 16.15074728364678 2.9979790801672213 0 0 0
203 1 0.02148112396394819 0.8855256430388412 17.540813071587685 1.764819017733046 0 0 0
204 1 -0.006646065778656424 2.3093495172472753 18.913970429617738 0.5738001953994012 0 0 1
205 1 0.002759462951284951 3.6026304156621647 14.744218241954332 1.6941885716983962 0 0 0
206 1 -0.06787145205610925 4.96645990204096 16.17622719801523 0.505225902853141 0 0 0
207 1 -0.00918502918153298 6.285248829610703 17.54872944839489 1.8223467597552918 0 0 0
208 1 -0.004808388890574319 4.929473890964465 18.90954391578961 3.103491453644649 0 0 0
217 1 0.0008728697967661375 6.246059486628645 14.890834060539442 4.398762402445881 0 0 0
210 1 0.009126937926701016 3.5443449097473145 17.5389583088005 4.331805685700922 0 0 0
211 1 0.01231815607634511 3.5175134240985098 14.887088131656345 6.94178314062194 0 0 0
212 1 0.00976684545556435 6.216722170647689 17.607629026333182 6.954073054034321 0 0 0
213 1 0.00899041907406942 2.208955595471846 18.91148132460587 5.622279351831315 0 0 0
214 1 0.005114258688998952 0.8431186952352852 17.584934389923344 6.912419349533053 0 0 0
215 1 -0.003974178096003991 0.8250866542358333 14.873062705676242 4.294636391943933 0 0 0
216 1 0.001516340540596225 4.883615848826047 16.235062162639647 5.670305898422174 0 0 0
218 1 0.009408966536358674 2.1785692263845022 13.549912479301613 5.617443930464234 0 0 0
209 1 -0.02345692149207926 4.930468503251623 13.521031582973993 3.106758798860344 0 0 0
220 1 0.003360490511839807 0.8089859932592879 14.932919434975746 9.51604558482461 0 0 0
237 2 -0.5323257306959375 1.1268382087465467 15.910065211894466 13.992513933250896 0 0 0
222 1 -0.01368111084798965 2.180150457909225 19.02988208706695 10.800845719689343 0 0 0
233 1 0.4294931089299558 0.5247258120452248 14.853268318342723 14.92727432199548 0 0 0
224 1 -0.01460389684821197 4.858331984015466 16.272144242179436 10.837806358881775 0 0 0
225 1 0.005996005993276689 6.2014577168399825 14.915247772184568 9.534890097901151 0 0 0
226 1 -0.006270432868126938 3.514763754076027 17.62735117872078 9.534938718870018 0 0 0
240 1 0.3028163379058251 4.677824329460203 16.35133236711411 16.124947627341907 0 0 0
242 1 -0.03409852136221268 3.501138053554647 14.88442673031542 12.101551262197512 0 0 0
229 1 -0.003492019931257813 0.7359494939270326 17.73766792895775 12.036671772479783 0 0 0
230 1 -0.008463512585725419 6.147433553935392 17.686063643532357 12.147067376209066 0 0 0
231 1 0.2409109496499717 6.171850541957711 14.899092672698698 14.566350747404899 0 0 0
232 1 0.2828916406885386 2.298752934247725 16.544562952674863 13.187574951206344 0 0 0
238 1 0.6595489730242459 1.9995699781481022 18.973153150179172 16.06967932227866 0 0 0
234 1 0.02029227103669227 4.822357883729752 19.078975989370274 13.476486969698042 0 0 0
235 1 -0.06365129811199591 3.4368525547190187 17.729309673693706 14.765176854866164 0 0 0
236 3 0.04864780117009664 5.4302129057623265 15.624123473363024 15.350041278884571 0 0 0
227 1 0.01316736843187933 2.150685614582382 13.564396445962107 10.787779962917341 0 0 0
219 1 0.00375715409024361 4.868977294917028 18.95911257141268 8.235864134925471 0 0 0
221 1 0.001053534847271338 2.182302341013825 16.25817143938954 8.231610623542498 0 0 0
223 1 0.004198218515099529 4.87174608316289 13.548855068060234 8.233743222691631 0 0 0
243 2 -0.6726129291548122 1.6471808737234075 16.246723276738326 18.36148260470904 0 0 0
244 1 1.337928771993518 2.5072761824794507 15.01910785056899 17.782440773047064 1 0 0
245 3 0.06681566499984767 1.4244141035274205 19.42945998830141 19.86357965525847 0 0 0
246 2 -0.7426866777212644 1.4206386854902247 14.041779302635296 17.077958106883642 1 0 0
247 2 -0.828385008050003 3.263927568916982 13.992607909289259 18.72284598150321 0 0 0
248 2 -0.6290459726492325 3.5445136618719753 15.442652535410256 16.674007632603647 0 0 0
249 2 -0.7232690713352695 5.068657218160411 17.103649800429242 20.0928605577816 0 0 0
250 2 -0.6031052341494728 1.0714253337746644 18.4394549232669 17.20197539603755 0 0 0
251 2 -0.6235902915440131 6.167460185607885 18.415199331765585 17.010393932391768 0 0 0
252 1 0.7768067000135733 5.956174229569972 17.14878276098741 17.905146812211555 0 0 0
256 1 -0.08420189851187349 0.3102626817800856 18.74791801255954 20.113751994094102 0 0 0
253 1 0.6275314800708353 0.48138349014603304 17.29718107349463 18.086444166185416 0 0 0
255 3 0.3993046614251662 5.098143672206706 16.45879733430019 20.902174696804337 0 0 0
269 1 1.285953593374214 0.38479822637890165 18.095517789298956 22.36792494253949 1 0 0
271 1 1.022390083966661 2.440030506693545 13.798533627454374 21.787654118694384 0 0 0
258 2 -0.8695255807205613 3.428116152303853 16.962773959638323 23.51794005986701 0 0 0
259 2 -0.9011997029667416 1.8514724582486086 18.46277903213159 22.457391865454692 0 0 0
260 1 1.7264783166004 3.227884563415 18.42158288403344 23.11682475368998 0 0 0
346 2 -0.7085783277318614 3.8785115503341703 19.36390346402822 19.73102033078116 0 0 0
262 2 -0.7596262805790418 2.936941071894395 14.5969805131035 23.0600232243467 0 0 0
263 2 -0.8424176205517057 4.32031702821421 18.664550702854932 22.058049033498694 0 0 0
264 1 1.516296256975406 4.088605253632132 15.579097439799124 23.614383969384857 1 0 0
265 3 0.08682373517740956 3.037555766286344 14.41862921129949 20.67524680764074 0 0 0
273 2 -0.7574094791585997 6.486730379903128 19.20537472737738 20.73006786115113 0 0 0
267 2 -0.8185443669418018 5.233226973828751 15.303076642090762 22.5035112363991 0 0 0
268 1 1.356673625521302 4.9391037144493275 18.649850320450174 20.626869010684995 0 0 0
1037 1 1.165458633276514 6.511530998375083 14.455088367041263 22.171966094552285 0 0 0
254 2 -0.6310567030939204 3.047308506440221 20.006220992782872 16.50767364161121 0 0 0
349 1 0.6959553044553565 2.534309615551945 20.142376015347516 19.571199683139664 0 0 0
270 2 -0.8253508035724839 3.305957832394135 19.34022427075043 24.35817080958788 0 0 0
274 2 -0.8168808091555834 4.617922109287498 15.556568906088854 25.09659083104167 0 0 0
380 2 -0.7399647418164902 5.498397084094778 19.92735251359054 25.650500530744747 0 0 0
276 1 1.448417424403261 3.431205277325405 18.13234985717379 28.36753756440167 0 0 0
277 2 -0.8046513717442448 4.072552468977305 17.322200131124735 27.146357604610767 0 0 0
278 2 -0.7173494284710931 3.435310658475157 15.028391406325829 27.13278965524113 0 0 0
279 1 1.536251432453035 4.590105855505009 15.92959894867363 26.614116363055828 0 0 0
280 2 -0.7597488075149792 2.8563044372044377 19.58338981929126 28.29851003351808 0 0 0
281 1 0.8599290260264558 2.470557784249098 14.399515139677442 28.155477628597705 0 0 0
201 2 -0.7017933340149681 5.495104944457367 13.715495916164814 30.79000977169337 0 0 0
283 2 -0.6665136192139168 5.933429471706795 15.602693332739669 27.323273063675806 0 0 0
284 2 -0.6045796829678496 1.332109465463555 15.750302929388653 30.678250844546902 0 1 0
285 1 0.7297721070704404 5.991586727105954 18.89996390807865 29.77667071839042 0 0 0
286 1 0.6827339298063104 0.6672685595829981 14.77968923838149 31.693148163878792 1 0 0
287 1 -0.03904621797594138 5.6563321157290085 19.639854217040032 31.97510313532917 0 0 0
288 1 0.1350787428853095 4.056869265615937 17.98314140706845 31.88922635364571 1 0 0
289 2 -0.7070396076715521 4.540864677303741 18.458366225392535 29.444701893290915 0 0 0
290 1 0.6768338727852757 6.218811320454163 14.925361717453848 31.45034862707782 0 0 0
291 1 0.6934896380104451 1.1269586558062068 16.288991534560978 29.21841265535667 1 0 0
292 2 -0.7258978734711635 2.3282726517424512 17.278857094384236 29.094374949514936 0 0 0
294 1 0.7423021617658544 0.32125325709924235 18.448160605007025 30.072252673373473 0 0 0
293 2 -0.6870565396871904 3.34685723532601 13.87272052712681 29.325172203099363 0 1 -1
391 1 0.01821819842819122 1.106794496000207 20.11937857972207 31.48390262669056 0 0 0
392 3 -0.05094632652981979 6.461551158621613 20.150464163339752 29.626557269416203 0 0 -1
295 1 0.009833804009250359 0.7558300219706005 22.926737640333606 1.6874787987572366 0 0 0
296 1 0.0006746822211251488 2.165704663934186 21.645943069172638 3.0377549695996007 0 0 0
297 1 0.04414162033409031 2.3102855365494968 24.216126860472784 0.40618149331371584 0 0 0
298 1 -0.004739916590450297 3.4849594962093695 25.693404945492578 1.820598151141792 0 0 0
299 1 -0.05107812679593339 6.149264063523242 23.080955796809953 1.729179828655521 0 0 0
300 1 0.03653752748973728 4.8502770922033 21.64965946786043 0.42241922848006236 0 0 0
301 1 -0.006088436337540859 4.843564751129451 24.372686910192993 3.082484566286355 0 0 0
302 1 -0.007105506522648228 3.607112287856156 20.29219946584183 1.8371766973067063 0 0 0
303 1 0.0101412057503301 0.848793823371478 22.97266330695972 6.907301248626659 0 0 0
304 1 0.002035828468783155 2.1770556073881884 24.327353141667388 5.630435336671901 0 0 0
305 1 0.001571321171295839 3.5141436171874725 22.98699752453967 4.336008468055971 0 0 0
306 1 0.008054732670339203 4.867137973921792 21.66126692258318 5.638836039684791 0 0 0
307 1 0.003783032522694879 6.239618576966202 23.0222741845937 6.893894560006441 0 0 0
308 1 -0.01381407806235362 6.233743635406575 25.739463372639253 4.313026800322825 0 0 0
309 1 0.001435844010731345 0.7768190595930091 25.589949064985497 4.321786815671088 0 0 0
310 1 0.009397384647600333 3.540893487697023 25.67708172522791 6.906014980287472 0 0 0
312 1 -0.003729604984453766 6.222616460529307 20.318532983370567 4.3753602481322975 0 0 0
401 1 -0.001259351540326165 2.1102871504353016 26.942937134636242 3.080580256284877 0 0 0
311 1 0.00628204427222407 3.540175544123957 20.285748714075837 6.9132147415462 0 0 0
313 1 0.001071034629330468 0.8575743823504032 20.266261923096053 4.33939332159411 0 0 0
333 1 0.005913237515212472 3.7031639036489086 23.153209482281685 14.562926646900987 0 0 0
316 1 0.0001076717241160208 3.571499352243464 23.012788763851542 9.479835353611545 0 0 0
334 1 0.01307068564347938 5.037662341801606 24.46917207982243 13.254479834906972 0 0 0
318 1 -0.008994497065278564 2.250270833365354 24.40531265226167 10.737847952654294 0 0 0
319 1 -0.000151587255033489 0.87709667706186 25.70974576460117 9.441244567744405 0 0 0
320 1 0.001474547710838534 4.9104589541985675 21.696049188972598 10.808362963870152 0 0 0
336 1 -0.01489320018240353 6.066339335350599 20.558764890400166 14.769056204182018 0 0 0
327 1 -0.00795895171005833 3.5187041836867783 20.397226871898198 12.10974568376278 0 0 0
322 1 0.007660470680477139 6.299052272442867 25.710747424115933 9.460329004804718 0 0 0
335 1 -0.0151733565314864 6.401878520559346 25.8511761393975 14.494380316015883 0 0 0
325 1 -0.02234439625088829 3.6492179652768053 25.77872510196699 11.95353537775073 0 0 0
326 1 -0.01387915270882741 0.878890245326747 23.065150444569387 12.007555571233631 0 0 0
337 1 -0.003578768707245904 4.864458917062392 21.98659637772763 16.090015378363425 0 0 0
328 1 -0.003858239025343234 2.2028396717314656 21.803006592453997 13.392437043358706 0 0 0
329 1 0.2624409515294984 1.0790368043111873 25.88902014754912 14.265712120483908 0 0 0
330 1 0.6355594011367587 2.8202410718616706 25.0587378459221 15.450669965199365 0 0 0
324 1 0.01169274929068984 6.325947888978507 23.035098536555036 12.056424847244719 0 0 0
332 2 -0.5556395459858472 3.8861959808917974 26.098503300707172 15.924858191985317 0 0 0
437 2 -0.6015309896526169 0.2751081511576272 26.82421120794793 15.241321558846261 1 0 0
228 1 0.008270816924947348 6.211475601589106 20.335264140711008 9.502952515125205 0 0 0
317 1 0.002843712776158386 0.8479707214497304 20.328049134134282 9.476131285966133 0 0 0
323 1 0.003586244815210478 2.2125585696900956 21.658193442872822 8.198986719609758 0 0 0
241 1 0.2366956970557348 0.8764404252820489 20.255717857556313 14.544830807142421 0 0 0
321 1 0.006185719365361227 4.915447264010839 24.365159052980708 8.198107120442197 0 0 0
339 2 -0.7396884286598585 2.373947086951426 22.35970778936717 17.40817792604175 0 0 0
340 1 0.7005212885622347 3.305942477072674 21.14281071742267 17.504184700965855 0 0 0
341 1 1.488157052500147 1.5293536457906598 23.62897970168127 17.715354462733053 0 0 0
342 1 1.589091508863928 5.2152343947234 24.315747920221433 20.01441726834274 0 0 0
343 2 -0.8893975592731458 1.7262431190776966 24.491658253388046 19.012578559852585 0 0 1
344 2 -0.6923794526640106 5.151069221428371 24.10939478473311 18.438178776412258 0 0 0
345 2 -0.784761743453815 6.41005909234169 23.322916267680785 20.202803975203427 0 0 0
362 1 1.675660623890279 1.1706232547047737 26.44329907749464 22.42173430109328 0 0 0
359 2 -0.7657261548029956 4.424033950609862 24.076829727670304 24.029481570423666 0 0 0
347 3 0.03494806848554691 5.194476828314225 21.530734912497042 17.535946630872328 0 -1 0