LAMMPS data file via write_data, version 23 Jun 2022, timestep = 1510041

6061 atoms
3 atom types

0.07822032538592083 53.90951364363066 xlo xhi
0.07822032538592083 53.90951364363066 ylo yhi
0.14061200452742284 32.43938799547357 zlo zhi

Masses

1 28.0855
2 15.9994
3 1.008

Atoms # charge

1 1 0.5722862013090988 2.632843594320867 2.296744002688119 0.835089673521168 0 0 1
2 1 -0.01970856416732415 0.9277477919694543 1.044177073300087 1.7315989057292374 0 0 0
3 1 0.01300540625729853 2.2582264308601525 5.419796478092231 3.0790378004862196 0 0 0
9 1 0.3267931429322007 5.229687923233199 5.210929670893135 0.6135826357411731 0 0 0
5 1 -0.02814648661007658 6.350102685906786 1.6097867461462505 1.8296473137299072 0 0 0
6 1 0.01123184504973831 5.050035899964175 2.8190871804562097 3.2520262766707675 0 0 0
7 1 0.2441067132448712 4.881233788700828 0.2963804260330854 0.6481898516413521 0 0 0
10 1 -0.04103096336869608 3.7064496890272736 4.043671190434733 1.9042019729053674 0 0 0
11 1 -0.05300854663802845 6.309129371958099 6.7418647671657554 1.9168512475239579 0 0 0
4 1 0.03752090675056104 0.8707878799348905 6.789789338586726 1.8010261061686486 0 0 0
8 2 -0.5486128228000763 3.77423574773672 1.3563947256006208 0.26006512739126225 0 0 1
12 1 0.00112701902173204 0.9306910118648497 1.415803061391541 6.89684805660078 0 0 0
13 1 -0.0003964145409275713 2.348658176341602 2.765083525086639 5.69556702912319 0 0 0
18 1 -0.01480842878201176 3.6437932442522794 1.3988745130430063 4.389198720009895 0 0 0
21 1 -0.0004676402751877598 3.689851668460165 4.139988839007839 6.976826003762991 0 0 0
22 1 0.007486492683265684 6.38496205914293 4.2049976299047005 4.490096170972062 0 0 0
17 1 -0.002047990381605178 6.3702669539919095 1.4313601534672817 6.91173666275624 0 0 0
19 1 0.004534662207390266 4.983820593909855 5.532581416031272 5.717711409867202 0 0 0
15 1 -0.01347245703181257 0.9729446427345464 4.031094593362845 4.373912127090587 0 0 0
16 1 0.016319839914855 0.8934188735276276 6.789606302300601 6.963586682732142 0 0 0
23 1 -0.003107952710356583 3.5629977536529545 6.788774788298432 4.413406431309573 0 0 0
14 1 -0.01240539217089413 2.306963135398829 5.502808376515637 8.206136989949446 0 0 0
24 1 -0.01368398993203165 2.385000756847795 2.7504740633088987 10.678114286514797 0 0 0
33 1 -0.008829653869821791 5.030930041740179 5.499339256260727 10.652082852044227 0 0 0
30 1 -0.006808104239880014 4.970300779612109 0.0919315503572733 10.809644034713125 0 0 0
27 1 0.2887758423040469 1.034350438410796 3.9755201501632382 9.314498812483512 0 0 0
34 1 -0.05254140543836681 6.4292506592456515 4.08770764638522 9.53744371862165 0 0 0
31 1 -0.02137954775636076 3.6862119377990137 1.399505564724308 9.429405858692498 0 0 0
2193 1 -0.02918419470721564 3.782521379382476 4.107665925643882 11.866682384812442 0 1 0
1364 1 0.2628863589229558 1.3669532125697081 1.0638302929626302 11.832219986299679 0 1 0
681 1 0.003403715723105487 6.392556905154875 1.2944277789268508 12.113198091696388 0 1 0
500 2 -0.4993683320706722 0.2729311675016128 4.802998060504912 10.381961454137384 1 1 1
59 1 -0.05565435076362005 6.22011791817153 6.667051061703894 12.159634326517764 0 0 0
5437 1 -1.905136358362064e-05 0.9663799411777619 6.791208926829462 12.14668302522528 1 0 0
32 1 0.000550730858265791 5.06291872510246 2.7767217627810017 8.219414113280955 0 0 0
6014 1 0.01830807290891385 5.320410124273949 3.0098535473162613 13.163689911202223 1 1 0
2296 1 0.3020113192306186 1.8048259187874776 3.710198749583132 14.15979604540844 1 0 0
1527 1 0.09083780107455257 2.652970078116705 5.650669468641533 13.151581815085216 0 0 0
1574 2 -0.5726547089759588 1.6356541192170833 4.332317778700142 15.549034204349438 0 0 0
3716 1 -0.02007252236096563 3.602448385293796 2.3393530663652085 14.580016766807747 0 1 0
498 1 0.01275289238874023 2.500813539785003 0.3967326005059795 13.747574204208805 0 1 0
701 2 -0.5323424307965563 0.3526900881516395 2.018694708400812 12.527933153393358 0 1 0
53 2 -0.8163843938999682 1.9867976826338214 5.535668505819102 19.40065190402398 1 0 0
1481 3 0.02339508720752324 6.16727875013068 0.20825945737094537 18.535410772215286 0 1 -1
2385 1 1.153566866025563 4.557325956981914 2.943239277143625 16.690411334823846 0 0 0
684 2 -0.7926035736755386 3.39835245410671 2.890466301273505 17.70508765237125 1 0 0
4417 2 -0.6815782758783814 5.504805864842189 1.728334130838533 16.735728454566285 1 1 0
4489 1 1.620651904852612 2.041184402158148 2.4335753409346665 18.31674369466773 1 1 0
1363 2 -0.8444539803428892 2.210881871733642 0.9259246514446728 18.632237341546947 0 1 0
51 2 -0.8506507597176012 1.7124553328377854 3.193218326458877 19.6369927588125 1 1 0
1148 1 0.6498119189524075 6.442819481492707 0.605698454379215 17.272818728068863 0 1 0
5246 2 -0.7660298505429345 0.07888938912302156 5.668624162165713 16.57172304633274 1 1 0
68 2 -0.6123497957199426 4.387571063459577 0.2582383198112911 19.85091912891533 0 0 0
41 1 1.247293648040411 0.45420945031504767 4.166356395412907 16.515510166167438 0 0 0
6019 2 -0.8392912524697222 0.9364145559962507 2.9274343655824153 17.32835725610154 0 1 0
52 1 1.732278404595606 1.1597624046005781 4.512390804014714 20.225780189734838 0 0 0
4206 2 -0.6787611477396315 5.145411989068791 4.360239939488647 16.332887597835303 1 1 0
136 2 -0.7665524671404585 6.780819133030359 5.963060157799821 17.67575905824025 0 0 0
2192 1 0.8809178790260588 6.329729873685502 5.384206177275611 16.310683498786698 0 1 0
64 2 -0.8988992167312877 1.5752865990381606 4.755496084151712 21.682930261153675 0 0 0
71 2 -0.9193189872496691 3.7428885582136044 4.8382330074838595 22.91645019633711 0 0 0
66 2 -0.8875717405106549 1.79382379225688 3.2467668852841998 23.63397034928604 0 0 0
63 2 -0.8853851019859394 1.9358031647926186 0.9614293011583364 22.86091787881943 0 0 0
62 1 1.766689899762723 2.0509457163423273 1.8214166272546848 24.13776519180567 0 0 0
67 1 1.807778403781786 2.234949442152812 4.605099823907336 23.056690435171824 1 0 0
70 2 -0.7769511424652586 6.122816328833988 4.321580213253747 23.06663880801206 0 0 0
65 2 -0.8957490356350392 1.6417144622812034 5.583845837263417 24.0785484108238 0 0 0
159 2 -0.8358167681526242 5.365778838107125 6.401691279170364 21.866075026710114 0 0 0
69 1 1.694920329099815 5.110698052285404 5.510444250637757 23.10722116538603 0 0 0
729 2 -0.7726625446463381 4.183116890662235 0.6033274969873224 26.370362374206145 0 1 0
1205 3 0.3938020186061447 5.804830394169364 2.5430182248862008 28.27482109251543 0 0 0
81 2 -0.795045611280079 4.802388877450751 5.19652067911789 27.870944963137955 0 0 0
86 2 -0.8360705640418209 2.196563594325332 4.468791360559351 28.02781781282744 0 0 0
78 1 1.623333355052686 4.618452036253067 1.9630026052155602 25.760051184846 0 0 0
79 2 -0.8741163694299644 4.307375919654302 2.925273299769013 26.962342378502232 0 1 0
77 1 1.223883928854183 3.675314169279223 4.174733162229084 27.65443834791045 0 0 0
80 2 -0.8209368013447915 6.10938319596137 1.8224743498609093 25.237058063408323 0 1 0
76 2 -0.8017719495534528 1.1162441000176537 1.422848823410524 27.54901268405625 0 1 0
75 2 -0.8841412145734598 0.9887336454601477 1.3313992829021397 25.158249736685384 0 0 0
74 2 -0.8713996697084776 3.5023214451451365 1.9788115842488596 24.67840876459804 0 0 0
98 1 1.595537678335368 5.597338172269746 6.467317390149078 28.27670811993884 0 0 0
5471 1 1.73011996382084 0.4408563972883445 6.251314275545182 24.771808587783784 0 0 0
82 2 -0.897267481002501 5.149214507216183 6.283979078824281 24.458289511642764 0 0 0
4984 3 0.1745140765799525 4.235094102714627 2.8537686613552244 31.14167215304901 1 0 -1
92 2 -0.5817737366616725 5.954007897573023 2.7983070519531434 29.22303494291384 0 1 0
91 2 -0.6823778884674355 0.626339867023998 2.0578395481806746 29.874483350758503 1 1 0
5279 3 -0.00280126301740004 2.870224344792148 2.376327141041828 29.35744528572823 0 0 -1
88 1 0.3640714610207852 4.030095464793715 3.345424895643154 29.865224789493304 1 0 0
89 2 -0.547002175351093 3.46958923830699 4.693575846307317 30.423704293885724 0 0 0
743 3 0.02764668017422573 4.543189374463575 5.679177773665645 31.91753485387193 -2 3 0
5394 2 -0.6859877426861319 0.33550498216641383 5.458309603207715 30.018901457080307 0 0 0
85 2 -0.5833587719437837 1.6948397645649924 2.953971932679917 32.09697431565661 0 0 0
97 1 0.7234370929331057 3.7625178785575617 6.121210259462721 30.99077975879252 0 0 0
5391 1 0.6144220805988772 0.39129697256885865 2.6475308627228658 31.295645161004245 0 0 0
95 2 -0.6045792753223859 6.193610054880956 4.097474653985983 32.388433327639724 0 0 0
87 1 1.08855218053451 1.6965627841039013 1.4304919467815296 28.980281896906234 0 1 0
93 2 -0.7724217633760118 6.665516900565315 0.42301832972769265 30.26755723209091 0 1 0
90 1 1.578225002147462 0.984215090668244 5.3188605649358 28.57592045260933 0 0 0
178 2 -0.5505131259226257 2.7694374117014267 6.7005309320549875 32.09705358129684 0 1 -1
100 1 0.2243276251490726 2.2363011490883746 8.038028236778322 0.44028648380762475 0 0 0
101 1 -0.01692229125963174 0.9763221678394711 12.088185548646896 1.7953231267584526 0 0 0
102 1 -0.03351709442582487 2.305356294697749 10.758934527870924 3.113473922545998 0 0 0
107 1 0.2942866471436736 4.734360556779632 10.975278457851813 0.6792106896010084 0 0 0
104 1 0.004749842431988401 4.953416800635216 8.095556445094061 3.1530125291645357 0 0 0
105 1 -0.08345292988622774 3.5883087048764244 9.32110015873702 1.806587189316848 0 0 0
106 1 -0.02902312551068377 6.2532316981960525 12.16128380877554 1.8508912833789413 0 0 0
191 1 -0.01103606809231009 4.901592294410911 13.479817430043491 3.1337646168833198 0 0 0
103 1 -0.04777707993317891 2.2461634572112357 13.356675909391297 0.3565826344546236 0 0 0
108 1 0.002899165573604097 2.204318710125386 8.150872308881144 5.673395031790977 0 0 0
116 1 0.002695505396664112 3.6050138842377084 12.119701122855197 4.436779520131021 0 0 0
110 1 0.01253091172767928 0.8631634265607013 12.183764829762914 6.953581970490982 0 0 0
111 1 0.009867096903962539 3.5466764716054198 9.489843692670252 6.96545474810001 0 0 0
115 1 -0.0003118250165026898 6.260222333844039 12.205569367224172 6.985836423492012 0 0 0
109 1 0.002857329639284298 0.8813075719259031 9.510651315931538 4.394736330725207 0 0 0
114 1 0.008540834611613046 4.9562926826502975 10.803842051218087 5.720890690557605 0 0 0
20 1 0.003436713625535055 6.309460182155546 6.863919910618104 7.033158832888804 0 0 0
112 1 -0.01163178988042831 6.301981923026425 9.488629884597376 4.407106570258338 0 0 0
197 1 0.005806324702213761 2.2561466094149085 13.487686805238209 5.691759319026274 0 0 0
117 1 0.01763505821995145 2.1820085833432947 8.164636898805043 10.77763252353049 0 0 0
118 1 -0.001151402994965051 0.8232069914846308 9.50484976720518 9.524226764146976 0 0 0
36 1 0.007928988118753644 3.5814060578221505 6.852293282351872 9.516650586112634 0 0 0
124 1 0.001983698233400652 3.5543671368980676 12.169049049485208 9.491508640162241 0 0 0
121 1 0.001403686587291904 6.253768582589919 9.497276505551536 9.579445031551955 0 0 0
120 1 0.006419559876401297 2.1840238449885634 10.827189761920454 8.238172258463274 0 0 0
123 1 -0.01743981167319445 4.862709458516849 10.805803323805586 10.815787441689585 0 0 0
47 1 0.00810805627726521 0.9540765897909164 12.149212609317022 12.013682741080379 0 0 0
872 1 0.0230177528581818 6.283501065786753 12.075327659463488 12.072874691890778 0 0 0
4003 1 0.02811057378434274 3.626295973539719 9.33315865359773 12.0951708951049 1 0 0
113 1 0.00873137593096307 4.9140228627400875 8.195598464338211 8.263033445364245 0 0 0
232 1 0.0330135170419695 4.320664396547247 7.3581761111399695 13.214538434525858 0 0 0
1546 2 -0.8595957950895797 2.471959537466959 8.921765343621031 15.528231478650135 0 0 0
306 1 1.225204663415299 1.3832745817201797 9.759737322084982 14.877484032668223 0 0 0
2213 1 -0.05170108038304608 2.536159102091852 10.968725587275502 13.228379801863541 0 1 0
50 2 -0.6522382187881942 4.847942098738011 11.541858366849116 15.033145868035886 0 1 0
794 2 -0.7309834356078244 0.6232301782922803 9.066186573850892 13.740184370177106 0 0 0
5429 1 0.3041426821427484 5.626910116835811 7.354330383879291 15.111325143975078 1 0 0
2105 1 0.3118497156430466 4.012001395000734 12.485365117977983 14.124990625432256 0 1 0
894 1 -0.1141853583412138 6.671158447779482 9.407253744878421 15.368218963264674 0 0 0
137 2 -0.809128083288901 0.6524827099989341 10.99188816767373 15.461774953590679 0 0 0
5257 2 -0.6582629650546432 4.416905652447354 7.532994653349335 16.039563570853403 1 0 0
314 2 -0.8153805495020539 6.0636017297973845 11.481563960907403 17.425837156176478 1 0 0
144 2 -0.809865563444566 6.263938189296938 7.420585682884877 19.632376861729508 0 0 0
1563 2 -0.8210791066835068 2.741387033317712 7.664149581511562 17.83677436551883 0 0 0
881 2 -0.877104763905819 5.38043241022016 11.049050520502227 19.86253710644499 0 0 0
238 2 -0.605150003755096 2.0170671224773686 12.147273387510607 18.702583227534888 0 0 0
5448 2 -0.8294913677624077 0.12786258298375175 12.255395165432603 20.16773305267497 0 0 0
1530 1 1.605258356547753 3.3829597761473122 8.48389917533024 16.680276343211816 0 0 0
2496 2 -0.8207836772365162 4.211877603570082 9.758056330707443 16.96198707443085 0 0 0
126 1 1.631446139201623 6.02533364854749 12.041533647263437 18.86475156863638 0 0 0
5432 1 1.182529006864002 5.142842418472211 10.841638414023365 16.384297435518445 0 0 0
138 1 1.297759974681895 2.5935461695966446 6.926449561748751 19.179715683807604 0 0 0
143 1 1.624809036318117 1.571040266455738 11.710355626538384 20.154226210042285 1 0 0
302 1 0.2562751748539779 1.5091237612585122 12.847356446250748 17.388305416252695 0 0 0
149 3 -0.08226053025813078 3.914081374007861 7.1161694819204255 19.95106290777528 0 0 0
139 2 -0.8290328514777696 1.7412124626223495 7.789644858132692 20.09247512074398 0 0 0
58 2 -0.7461742748799316 5.226874313342381 13.360146628652304 18.778767568131958 0 0 0
155 2 -0.8766166635099001 2.538035968546938 11.92025540013527 23.795521025399104 0 0 0
154 2 -0.8922990320121402 4.437121827032271 11.24482147120507 22.196600024150168 0 0 0
153 2 -0.8513352131874227 2.413146409904485 12.344756171497059 21.29790812669979 0 0 0
5443 1 1.745324987176242 0.681191951251943 8.832548409579703 20.455218897394396 0 0 0
162 1 1.738501549858094 5.317411907130362 10.371302024864702 21.2479754499475 0 0 0
158 2 -0.8219403925552569 4.915192702171409 8.878230738451622 21.172455990225878 0 0 0
157 1 1.276575613799922 5.19800486399065 7.42968629143705 20.731380725682616 0 0 0
152 1 1.729498161557537 3.3447669072158304 12.301149682201359 22.538915770664772 0 0 0
142 2 -0.8772803749516951 1.4153380739303183 10.191951576617848 20.415796070784136 1 0 0
161 2 -0.8854156942151674 6.77134116968821 10.367201406158795 21.757877106737258 0 0 0
164 2 -0.8642465218167719 1.0183439204970177 7.594870988455408 25.321116891971922 0 0 0
171 2 -0.8672713304600459 5.682963795423894 8.714607536397136 24.975185006297405 0 0 0
170 1 1.716549186446818 4.933332746470932 7.452064185052829 25.470364418682514 0 0 0
5473 2 -0.8362566865376962 0.6227785539652676 11.547151404787988 25.324036406295807 0 0 0
163 1 1.704654976380193 2.116504146961748 8.571686883504352 25.8571031040771 0 0 0
166 2 -0.8868640741393421 3.4498973578878585 7.7797982791104925 25.777139134219176 0 0 0
167 1 1.749116570879033 2.1588881164244027 11.534619383591172 25.24294822234714 0 0 0
169 2 -0.8670527372796224 2.424655881318565 10.010496068068022 25.361188418606908 1 0 0
165 2 -0.8427894749974455 1.5758540448205913 8.875723763507679 27.280934874404156 0 0 0
83 2 -0.8520790903999929 5.517692119952594 7.1954594935197065 26.898407104830877 0 0 0
173 2 -0.824783244592142 6.612201610837782 10.750093005559526 26.274975285539718 0 0 0
168 2 -0.8425906955930553 2.4415870761174543 12.596356252018802 26.33372202208987 1 0 0
181 2 -0.7546633999959316 3.931256850128089 12.795313328008131 28.400344487128788 0 1 -1
257 1 1.258327409444727 3.1955014875588006 13.524008279697457 27.293922218763573 0 0 0
183 1 1.051655089323777 5.195309686177966 12.732702229538074 29.305665134827212 0 0 0
176 2 -0.6409166083876933 1.5671126683696797 9.135970635347295 29.731592438573948 0 0 0
2896 3 0.06253314148309795 2.5418034258530553 8.701090494820066 31.65204556557948 0 0 -1
185 2 -0.6360669093250809 5.589813424070078 10.524094531034219 31.766421470061648 0 0 0
179 1 0.2147972770048487 2.8756332614979447 9.305111770882883 30.519279349996538 1 0 0
180 1 -0.0726659918599516 3.501176551771266 11.933893330982164 31.390597425146886 0 0 0
1372 3 0.09225628078306004 3.199830217564561 10.725381715224481 30.9768961557173 0 0 -1
3834 3 0.2141820897211359 4.099061565145123 8.289458680330673 29.872550520710803 0 -1 -1
244 3 0.0629694995942873 4.322977755839072 12.292103037440228 30.44032980198347 0 1 -2
94 2 -0.7243449710129399 4.885826373455514 7.1424169273864235 29.510309572593442 0 0 0
6074 3 0.06869471519577247 6.083119708288098 9.398259506583084 29.539702289516065 1 0 0
182 1 1.004194920892471 6.609690605239099 9.749009561602408 30.91321350057563 0 0 0
175 1 1.605236839890115 0.9298383653569716 8.314482780435352 28.57041501860901 0 0 0
184 2 -0.7817670656518011 6.148921739450244 11.586646635347387 28.729725265463518 0 0 0
926 2 -0.6267259531759408 6.782118738367767 8.50209723484217 31.813831330548297 0 0 0
177 2 -0.8295958218192115 1.3496815885891185 6.821759230605836 28.410222633718284 0 0 0
186 1 -0.002658084764230718 2.247611430262529 16.10380067637984 3.000048127032189 0 0 0
187 1 0.006579076559080597 0.881091049734509 17.433811143774932 1.717843517974779 0 0 0
188 1 -0.004383557989137754 2.3077056318550175 18.706378980053046 0.4324180856614281 0 0 1
189 1 -0.003150954551375776 3.5691939109170656 14.695756797022328 1.711915943387731 0 0 0
190 1 -0.04297419290754598 5.003111348957092 15.93322332089805 0.4164413380056434 0 0 0
194 1 -0.01401854373275514 3.5578605447380487 20.161934734500594 1.6963308517272855 0 0 0
192 1 0.00227598395864325 4.906319082410732 18.831287277261872 2.9763818720218955 0 0 0
193 1 -0.01634567773625432 6.248219554332412 17.466750458349882 1.6632796975988506 0 0 0
202 1 0.008028844565344875 6.218228356900166 14.891100346572268 4.373292182112081 0 0 0
204 1 0.01106246214002441 6.236963505973783 17.594738200740718 6.876561016488645 0 0 0
195 1 -0.00861460493562434 0.9341301404835002 14.79311264455662 4.350252487453982 0 0 0
198 1 0.007731600865741796 2.2371380772686984 18.953429715942395 5.603888326400341 0 0 0
199 1 0.009087476908877803 0.8985164509589212 17.635276395598417 6.908292679875932 0 0 0
203 1 0.009003184501826567 3.548443416270164 14.918748608882414 6.934763127017895 0 0 0
201 1 0.004419205436795831 4.859398742290169 16.260570076013604 5.612530542192917 0 0 0
205 1 0.009612403230918477 3.5110328411864664 17.554017585928378 4.28328217385255 0 0 0
294 1 -0.00210711421578845 6.238202767797434 20.213967763298843 4.272584723118876 0 0 0
217 1 0.003429776583718978 4.922267705034813 18.948896428809427 8.171366487654003 0 0 0
196 1 0.005568410368297076 2.20531188010545 16.276239608159006 8.193826558830771 0 0 0
207 1 0.005781460636481744 0.8933248497580232 14.889277297905428 9.453396406110258 0 0 0
213 1 -0.002616872546574021 4.8808905182234685 13.559038803009773 8.22454689527495 0 0 0
208 1 -0.008071379248993621 2.2404210676109635 13.54365210243199 10.731972326277734 0 0 0
216 1 -0.00162421355923012 3.546754729981651 17.637361466263286 9.44069053630376 0 0 0
5629 1 0.01156217969537783 2.2076764630783536 18.923581773018178 10.75540755486738 1 0 0
212 1 -0.0001382736955209476 6.26765412794518 14.884089436406061 9.483466946160533 0 0 0
215 1 -0.01321933013263914 6.328929811319278 20.21515312287297 9.465936463694222 0 0 0
247 1 -0.0221271813912737 3.6824798048126195 20.08913208393738 11.98613087124866 0 0 0
4958 1 -0.003133481272647433 4.926508710161011 16.29777775688582 10.672627644080384 1 0 0
5435 1 -0.01547662286067638 3.6872268292707457 14.884325757257848 11.915566536515623 0 0 0
132 1 -0.008210105512142553 0.9493063102464017 17.52898218500235 12.037746083407937 0 0 0
1642 1 0.02450571056796124 6.306699107823385 17.42424482203988 12.106171671832826 0 0 0
3251 1 -0.02144051465291333 4.876041329447439 18.65337651681939 13.372392384802371 0 0 0
5351 2 -0.6222256837202614 6.243839654793048 15.692992665610198 15.780697114776615 1 0 0
606 1 -0.02603041055768716 1.1667262656243496 14.846291363469737 14.52493020615114 0 1 0
5535 1 -0.004611972595265378 3.777397369671825 17.17433406680893 14.708869697631386 1 0 0
222 1 0.01059029948572811 2.383758771748726 16.178653099875824 13.220751761011122 0 0 0
866 1 -0.04546944941660902 2.090431298032243 18.126500489269358 15.814736872445067 0 0 0
4787 1 0.2634724569280044 2.7317756397675557 13.562357907875642 15.601096353754771 1 0 0
766 1 0.03589832293147477 5.453067322794164 13.950674001602732 13.056825159981717 0 0 0
780 1 0.06506456455724677 0.4157222825189048 16.51625993141434 15.890984974276863 0 0 0
122 1 0.02222367038035302 1.1444991855525564 19.805378107222953 14.535350202304853 0 0 0
1736 2 -0.5665171581673561 3.6169402016413783 14.719746341415629 16.11057903125721 0 0 0
5545 2 -0.6969653644646552 1.892757839224726 15.979377635100857 19.891127077964505 0 0 0
5555 1 0.7978079644478798 0.3663324219497959 15.987996598256956 20.185707607522886 1 0 0
214 1 0.9325302009771665 5.443541991986985 14.882294626617249 18.848411860146243 0 0 0
1671 3 -0.004429082221911821 5.108283568181937 15.299565492700037 17.574614054043906 2 2 -1
2117 2 -0.7784015875630755 3.4267529548938063 17.46806076915782 18.59616402144573 0 0 0
5728 1 1.169748031416914 3.034113257818807 18.797062380579025 17.888973980930412 1 0 0
127 1 1.189963436905343 3.301342166988168 16.670422085094213 19.937555949565017 0 0 0
883 2 -0.665829310145638 4.354174625876687 15.546798875972055 19.733520035550825 0 0 0
2517 2 -0.8530977536692775 4.020650680135795 19.859352497513456 17.417713294757572 1 0 0
125 1 0.6391749442880655 4.7847851355029505 15.701562543831065 16.32453629851808 0 0 0
4768 1 0.3402389801167361 0.5680459060404761 15.203154523800391 17.877778912738485 1 0 0
998 2 -0.7614115566103349 1.692062957048809 19.266537191219236 18.497351944262096 0 0 0
1067 1 1.309304855338149 0.1522468850601774 19.429825416306898 18.45921522365903 0 0 0
2325 3 0.06559598847733213 1.074567517221006 14.024386764932489 17.667372782185 1 0 -1
256 3 -0.03564182177481792 4.213009229299668 16.16220384001142 23.143732849369048 0 0 0
249 2 -0.7873584426689064 6.142762329684091 14.6514121187814 22.54264649079613 0 0 0
267 3 0.001196824888777075 4.358030966632707 18.539967337908752 23.735144885519976 0 0 0
246 2 -0.6482154153424371 2.048776770870479 17.418936614393775 23.36784283974094 0 0 0
235 1 0.6019436220716524 3.5657216727962293 17.49867993969881 22.960804547799594 0 0 0
255 2 -0.649643282017161 3.819276906128373 17.981561209671288 21.508477629444144 0 0 0
251 1 1.214729461720136 4.861654301110079 14.819270447461209 23.401907845903967 1 0 0
5633 1 1.187635404776346 4.796454089110842 19.87687625813085 21.466228051979858 1 0 0
156 2 -0.8117179430872056 3.8704835524393193 13.723644836543997 22.913784938516184 0 0 0
5561 3 -0.001251151450566519 0.4658450593175529 16.539236863459784 21.641785866369883 1 0 0
248 1 1.117384035659412 0.5535800920300115 17.039716239829783 23.069478159478056 1 0 0
265 1 0.6310601662937992 5.081617975947853 19.540111111257037 24.300784312539356 0 0 0
5434 2 -0.8018411795296216 6.155855174304951 19.913551083958627 20.73710773510202 1 0 0
266 2 -0.6346432468715678 5.275224361326302 20.222272339260552 22.918444635176712 0 0 0
263 2 -0.799528480817278 5.353531741643477 15.22488514482929 24.81044935492645 0 0 0
5570 2 -0.7466383600653573 0.24443619555067456 16.014887554941588 28.117525614265162 1 0 0
5397 3 -0.05555863191095037 2.4014174557996926 14.638869074697686 28.004172082357307 2 0 0
260 1 1.451216676002048 3.8886471779920293 17.75064576888432 27.89981290207374 0 0 0
259 2 -0.7135844686398443 3.791168788127403 19.171930597772715 27.222161082407517 0 0 0
262 1 1.541891957748741 5.2478728913055575 15.50201188023576 26.340501189871397 0 0 0
264 2 -0.8506233801533505 4.521316308638107 16.79519087076173 26.828818328341548 0 0 0
258 2 -0.8083817280749092 4.296223349834079 14.313239544875923 26.60977635287837 0 0 0
345 2 -0.7748508908548525 1.8228892459327573 20.00000342453174 26.41810352201508 0 0 0
253 2 -0.6213097267472065 6.557708157781821 19.12654443525578 24.644027909315824 0 0 0
5574 1 1.605300291182514 0.3416144178030073 19.560853948611904 26.43487041079234 1 0 0
261 2 -0.6575875457739561 6.571859018285598 15.497727457417497 27.150455221646038 0 0 0
268 2 -0.6905484263298586 1.5700212433501495 15.361576807421013 30.29900822218839 0 1 0
269 1 0.7135285008036283 0.7534399462284338 14.626574427390052 31.427991717492908 1 0 0
278 2 -0.5322805473315281 6.649898968915449 17.39457698125788 29.902895894965532 0 0 0
276 2 -0.6855863037512699 4.593113397889845 18.379868963038895 29.157728777405584 0 0 0
279 1 -0.110089586907086 3.719657743905773 17.314410011868528 31.573268351481012 1 0 0
277 1 0.6285779821221295 5.436062873824698 18.21482407492778 30.433881136300695 0 0 0
274 1 0.2615916769170227 6.399588572882299 14.865526023703481 31.192771545057216 0 0 0
4430 3 0.1845547453197454 3.02520934611958 16.589435508189382 30.65370209377225 1 1 -1
270 1 1.04714364936067 1.643973851775647 15.886330145211273 28.81194873496626 1 0 0
273 2 -0.8236560952339048 2.6058482480782446 17.087385980830135 28.526949717168733 0 0 0
275 2 -0.606604646638975 5.710620610879588 14.011637806566567 30.0713016209442 0 0 0
271 1 0.3330716085033609 0.5215589264155377 18.241164589069694 29.818119653982762 0 0 0
272 1 0.02606257965718849 1.0892510728270308 19.956629863142368 31.28018182360269 0 0 0
365 1 -0.06216394390362322 6.24276507851897 20.153873192426673 31.32284193606824 0 0 0
281 1 0.005391469830271368 0.918699487525712 22.80351445436466 1.6274528274045412 0 0 0
282 1 0.003542056745448212 2.265006138218407 21.555650922243704 3.0012916749274234 0 0 0
283 1 0.05350232800953231 2.3642418707082298 24.13240831292579 0.4156348585016753 0 0 0
288 1 0.001419133883567306 3.5223283643061354 25.572608744479446 1.796143434647656 0 0 0
285 1 -0.03456490909139817 6.146196276225504 22.95321363584291 1.7336854446449161 0 0 0
286 1 0.03661571689983847 4.934261996973439 21.47455088800231 0.41172945319164356 0 0 0
287 1 -0.01814237560671696 4.891162160210737 24.302146576053318 3.0951244786687124 0 0 0
284 1 0.005667403940729586 2.210976974315494 26.94867110600724 3.0636985901263443 0 0 0
289 1 0.000646516850194602 0.9442709264723299 22.95998610519909 6.95991996480161 0 0 0
290 1 0.001709825215951338 2.267508282414312 24.27351065240389 5.641157154766448 0 0 0
291 1 -0.002884428210497066 0.9055742577959348 25.573708734517 4.325405727558928 0 0 0
292 1 0.01186241224561395 4.958206509714384 21.59159977922327 5.600172229575073 0 0 0
293 1 0.0009038822323767168 6.312301656701909 22.95863470710113 6.877079007528755 0 0 0
296 1 0.01031390003335731 3.627687939535383 25.662935996473756 6.867220291212258 0 0 0
295 1 -0.0009624934528065995 3.5737957290182534 22.911036162633657 4.340391864609174 0 0 0
297 1 -0.01345752861853636 6.275849540228204 25.712003856871416 4.30430440167167 0 0 0
206 1 0.005871515074515651 3.5907419423780857 20.28998787460798 6.893997164538508 0 0 0
200 1 0.008621648015531794 0.8949831875407824 20.273904797374414 4.312510132734614 0 0 0
310 1 0.0193751324510394 5.007955600697139 24.351344843371432 8.150822496017568 0 0 0
300 1 -0.02687094935768809 0.9374606508496404 20.38195697261072 9.552820826873477 0 0 0
308 1 0.02292425207129108 6.352872859504307 25.755579573901276 9.376944623075227 0 0 0
307 1 0.01965636446600353 3.768935866671411 22.895321275047653 9.430423273717253 0 0 0
1073 1 0.2550472608827292 2.1577207164208456 24.02770732258483 10.536947957070478 0 0 0
303 1 -0.008477694912602932 1.0245885532331156 25.66700988317595 9.381544318815013 0 0 0
304 1 0.01423917762749657 5.04363124704218 21.562088661500013 10.78306690665074 0 0 0
301 1 -0.006220339013585215 2.315399793994733 21.636352021120345 8.231188929111715 0 0 0
414 2 -0.514444579461016 3.2816843352462612 24.854561631067597 11.220794203723921 0 0 0
5642 1 -0.05726246893989928 6.447838470882888 23.014656590866863 11.929334014206528 1 0 0
1540 2 -0.6705627953864406 6.741476445214525 20.55786550396114 13.449705039613693 0 1 1
1070 1 0.01217881685065653 2.347066437071957 21.357793732714455 13.331046897908191 0 0 0
5927 1 0.2694183135566904 4.299113905083302 22.27087260691279 14.054722820903065 1 0 0
4961 2 -0.6136548055492529 3.757119038892292 22.68131617646851 15.435304061520686 1 0 0
966 1 0.006491419597789785 5.239797015109549 24.248565027938458 13.338949637185667 0 0 0
1080 2 -0.7056550373190917 5.908945357933511 20.52320130846768 16.05185821932089 0 0 0
4020 2 -0.7074742221371262 0.4078737415153544 22.173622096868048 15.964263705631964 1 0 0
955 1 0.02171386863374238 6.722454250573593 25.26226158438612 14.769706616941413 0 0 0
340 1 0.695041071580388 5.677629294847345 20.450439539268984 14.526348116415752 0 0 0
4769 1 0.2704693718487353 1.2314031827402288 23.14780970540596 12.426659023537006 1 0 0
5234 1 0.008911294207246755 0.2444966074186778 24.95581823309169 13.397122617975022 1 0 0
3471 1 0.4030967762153542 5.1011666943802165 26.16723625900978 16.109786778645734 1 0 0
2003 1 -0.05649468359017529 1.9453093102904329 26.495296431510184 13.132580700371811 0 0 0
299 1 0.224866263891508 3.0456531119170425 26.887186230859903 15.062468450357711 0 0 0
5725 1 0.2658915243670976 3.9325744474361928 25.806992194422254 12.254145936719045 1 0 0
5341 2 -0.764439418653318 2.360423549902567 23.70024183479875 16.990129484409806 1 0 0
1851 2 -0.8341763073707362 4.74297100316047 22.27996792101819 17.571737007410857 0 0 0
2507 3 0.01592316967281417 4.511990528193619 26.573185684359885 17.27422375086546 1 0 0
1078 2 -0.8984811134159804 6.335684924586675 20.39690725227969 18.422228779407206 0 0 0