ITEM: TIMESTEP
0
ITEM: NUMBER OF ATOMS
24
ITEM: BOX BOUNDS pp pp pp
0.0000000000000000e+00 7.1600000000000001e+00
0.0000000000000000e+00 7.1600000000000001e+00
0.0000000000000000e+00 7.1600000000000001e+00
ITEM: ATOMS id type q x y z ix iy iz mass element vx vy vz
1 3 1.13023 0 0 0 0 0 0 28.0855 Si 0 0 0
3 3 1.13023 3.58 3.58 0 0 0 0 28.0855 Si 0 0 0
6 3 1.13023 1.79 1.79 1.79 0 0 0 28.0855 Si 0 0 0
8 3 1.13023 5.37 5.37 1.79 0 0 0 28.0855 Si 0 0 0
9 2 -0.565113 0.895 0.895 0.895 0 0 0 15.9991 O 0 0 0
12 2 -0.565113 4.475 6.265 2.685 0 0 0 15.9991 O 0 0 0
14 2 -0.565113 6.265 4.475 2.685 0 0 0 15.9991 O 0 0 0
17 2 -0.565113 6.265 6.265 0.895 0 0 0 15.9991 O 0 0 0
18 2 -0.565113 2.685 0.895 2.685 0 0 0 15.9991 O 0 0 0
19 2 -0.565113 2.685 2.685 0.895 0 0 0 15.9991 O 0 0 0
23 2 -0.565113 0.895 2.685 2.685 0 0 0 15.9991 O 0 0 0
24 2 -0.565113 4.475 4.475 0.895 0 0 0 15.9991 O 0 0 0
2 3 1.13023 0 3.58 3.58 0 0 0 28.0855 Si 0 0 0
4 3 1.13023 3.58 0 3.58 0 0 0 28.0855 Si 0 0 0
5 3 1.13023 5.37 1.79 5.37 0 0 0 28.0855 Si 0 0 0
7 3 1.13023 1.79 5.37 5.37 0 0 0 28.0855 Si 0 0 0
10 2 -0.565113 6.265 2.685 4.475 0 0 0 15.9991 O 0 0 0
11 2 -0.565113 2.685 4.475 6.265 0 0 0 15.9991 O 0 0 0
13 2 -0.565113 2.685 6.265 4.475 0 0 0 15.9991 O 0 0 0
15 2 -0.565113 4.475 2.685 6.265 0 0 0 15.9991 O 0 0 0
16 2 -0.565113 0.895 4.475 4.475 0 0 0 15.9991 O 0 0 0
20 2 -0.565113 6.265 0.895 6.265 0 0 0 15.9991 O 0 0 0
21 2 -0.565113 4.475 0.895 4.475 0 0 0 15.9991 O 0 0 0
22 2 -0.565113 0.895 6.265 6.265 0 0 0 15.9991 O 0 0 0
