ITEM: TIMESTEP
0
ITEM: NUMBER OF ATOMS
3087
ITEM: BOX BOUNDS pp pp pp
0.0000000000000000e+00 3.6024760995299999e+01
0.0000000000000000e+00 3.6024760995299999e+01
0.0000000000000000e+00 3.6024760995299999e+01
ITEM: ATOMS id type xs ys zs
448 2 0.00355132 0.0611356 0.0199586
11 1 0.117532 0.0586178 0.0480117
1 1 0.0655616 0.00143404 0.100071
4 2 0.0393183 0.0292256 0.119291
64 1 0.0655684 0.144287 0.100077
2660 2 0.0935442 0.0179914 0.0761118
2723 2 0.0935458 0.160851 0.0761108
2715 2 0.00384753 0.0817769 0.0310079
75 1 0.117437 0.0838196 0.00259869
516 1 0.117395 0.0838454 0.145428
513 2 0.037422 0.111769 0.0727795
521 2 0.093257 0.125646 0.123203
889 2 0.00353487 0.061128 0.162818
457 2 0.146456 0.0611815 0.019862
20 1 0.260381 0.0585197 0.0479592
10 1 0.208415 0.00143133 0.100069
13 2 0.182135 0.0292623 0.11934
73 1 0.208432 0.144292 0.100071
2669 2 0.236396 0.0179843 0.0761177
2732 2 0.2364 0.160852 0.0761112
2724 2 0.146632 0.0817496 0.0310621
84 1 0.260098 0.0838317 0.00240414
525 1 0.260386 0.0837096 0.145487
522 2 0.180263 0.111755 0.0727595
530 2 0.236113 0.125648 0.123201
898 2 0.146408 0.0611344 0.162814
466 2 0.289185 0.061176 0.0199818
29 1 0.403278 0.0585853 0.0479394
19 1 0.351278 0.001437 0.100066
22 2 0.32497 0.0292829 0.119368
82 1 0.351288 0.144291 0.100072
2678 2 0.379256 0.0179944 0.0761107
2741 2 0.379258 0.160853 0.0761108
2733 2 0.289808 0.0818232 0.0311256
93 1 0.40312 0.0838277 0.00257203
534 1 0.403072 0.0838448 0.145391
531 2 0.32315 0.111781 0.0727963
539 2 0.378971 0.125646 0.123203
907 2 0.289121 0.0613354 0.162722
475 2 0.432121 0.0611559 0.0199275
38 1 0.546184 0.0586372 0.047927
28 1 0.494124 0.00142942 0.100069
31 2 0.46787 0.029243 0.119314
91 1 0.494141 0.144292 0.100073
2687 2 0.522117 0.0179907 0.0761108
2750 2 0.522115 0.16085 0.0761114
2742 2 0.432412 0.0817497 0.031026
102 1 0.545977 0.0837393 0.002526
543 1 0.54602 0.0838195 0.145468
540 2 0.465995 0.11177 0.072781
548 2 0.521827 0.125651 0.123203
916 2 0.43211 0.0611336 0.162793
484 2 0.574876 0.0612871 0.0198581
47 1 0.68913 0.0586901 0.0478543
37 1 0.636982 0.00143189 0.100073
40 2 0.610725 0.0292453 0.119317
100 1 0.636999 0.144293 0.100072
2696 2 0.664976 0.0179932 0.076109
2759 2 0.66497 0.160849 0.0761136
2751 2 0.575316 0.0816532 0.03115
111 1 0.688948 0.083714 0.00262308
552 1 0.688836 0.0837424 0.145385
549 2 0.608861 0.111778 0.0727925
557 2 0.664684 0.125651 0.123202
925 2 0.574991 0.0611792 0.162771
493 2 0.71769 0.0613319 0.0198821
56 1 0.83162 0.0586043 0.0481819
46 1 0.779841 0.00143737 0.100065
49 2 0.753567 0.0292592 0.119335
109 1 0.779856 0.144293 0.100072
2705 2 0.807829 0.0179919 0.0761119
2768 2 0.807828 0.160851 0.0761122
2760 2 0.718022 0.0815656 0.0310791
120 1 0.831751 0.0837928 0.00261303
561 1 0.831699 0.0838231 0.145434
558 2 0.751721 0.111781 0.0727962
566 2 0.807542 0.125651 0.123204
934 2 0.717737 0.0612867 0.162714
2 1 0.974703 0.0585707 0.0479406
502 2 0.860922 0.0612369 0.0196624
2651 2 0.950684 0.0179927 0.0761121
2714 2 0.950685 0.160851 0.0761124
55 1 0.922707 0.00143602 0.100066
58 2 0.896454 0.0292325 0.1193
118 1 0.922714 0.144294 0.100072
66 1 0.974539 0.0838453 0.00257095
507 1 0.9745 0.0838498 0.145392
2769 2 0.860915 0.0817026 0.0310312
512 2 0.950398 0.125651 0.123203
567 2 0.894563 0.111767 0.072777
943 2 0.860737 0.0611749 0.162726
511 2 0.00357003 0.203987 0.019954
74 1 0.117537 0.201502 0.0479926
67 2 0.039288 0.172111 0.11933
127 1 0.0655776 0.287143 0.100071
130 2 0.039249 0.315 0.119376
2786 2 0.0935451 0.303711 0.0761104
2778 2 0.00383833 0.224644 0.030996
138 1 0.117515 0.226593 0.00263188
579 1 0.117516 0.226577 0.145482
576 2 0.03742 0.254624 0.0727757
584 2 0.0932605 0.268498 0.123204
952 2 0.00354259 0.203975 0.162798
520 2 0.146404 0.204152 0.0197775
83 1 0.260442 0.201442 0.0479174
76 2 0.182109 0.172143 0.119374
136 1 0.208433 0.287149 0.100069
139 2 0.182125 0.314984 0.119354
2795 2 0.236401 0.303713 0.0761082
2787 2 0.146617 0.224494 0.0310552
147 1 0.260266 0.226684 0.00257216
588 1 0.260277 0.226679 0.145439
585 2 0.180286 0.254632 0.0727867
593 2 0.236115 0.268504 0.123206
961 2 0.146258 0.204183 0.162731
529 2 0.289243 0.204015 0.0199307
92 1 0.4033 0.201441 0.0479159
85 2 0.32503 0.172085 0.119295
145 1 0.351308 0.287153 0.100063
148 2 0.324939 0.315025 0.119409
2804 2 0.379263 0.303732 0.0760868
2796 2 0.289562 0.224602 0.0310306
156 1 0.403121 0.226683 0.0025712
597 1 0.403079 0.226714 0.145399
594 2 0.323137 0.254626 0.072777
602 2 0.378972 0.268497 0.123206
970 2 0.289321 0.204039 0.162712
538 2 0.432099 0.204013 0.0199329
101 1 0.546166 0.201454 0.0479351
94 2 0.467867 0.172103 0.11932
154 1 0.494149 0.287147 0.100072
157 2 0.467799 0.315021 0.119404
2813 2 0.522115 0.303711 0.0761106
2805 2 0.432421 0.224604 0.0310317
165 1 0.545946 0.226705 0.00255175
606 1 0.545956 0.226707 0.145419
603 2 0.465992 0.254624 0.0727762
611 2 0.521829 0.268503 0.123202
979 2 0.43211 0.203981 0.1628
547 2 0.574973 0.20398 0.0199425
110 1 0.688977 0.20142 0.0479485
103 2 0.610713 0.172114 0.119334
163 1 0.637006 0.287146 0.10007
166 2 0.610683 0.314996 0.119371
2822 2 0.664973 0.303712 0.0761102
2814 2 0.57527 0.224639 0.0310759
174 1 0.68881 0.226707 0.00255821
615 1 0.688819 0.226705 0.145423
612 2 0.60884 0.254617 0.0727655
620 2 0.664686 0.268503 0.123202
988 2 0.574985 0.203989 0.162816
556 2 0.717841 0.203988 0.0199588
119 1 0.831795 0.20145 0.0480037
112 2 0.75357 0.172114 0.119333
172 1 0.779857 0.287144 0.100073
175 2 0.753559 0.314979 0.119347
2831 2 0.807833 0.303714 0.0761061
2823 2 0.718152 0.224645 0.0310144
183 1 0.831724 0.226665 0.00259306
624 1 0.831734 0.226658 0.145455
621 2 0.751708 0.254626 0.0727797
629 2 0.807543 0.268503 0.123205
997 2 0.717837 0.203993 0.162818
65 1 0.974686 0.201422 0.0479576
565 2 0.86073 0.204056 0.0198652
2777 2 0.950688 0.303714 0.0761082
121 2 0.896427 0.172114 0.119333
181 1 0.922721 0.287146 0.100071
184 2 0.896378 0.315015 0.119395
129 1 0.974544 0.22671 0.00257987
570 1 0.974506 0.22671 0.145398
2832 2 0.860956 0.224592 0.0310277
575 2 0.950401 0.268501 0.123202
630 2 0.894564 0.254626 0.0727778
1006 2 0.860868 0.204078 0.162579
574 2 0.00367834 0.346891 0.0197645
637 2 0.00367866 0.489354 0.0203938
137 1 0.11761 0.344317 0.0479294
200 1 0.117593 0.487349 0.0478936
190 1 0.0654785 0.429943 0.100154
193 2 0.0393063 0.4578 0.119306
2849 2 0.0934949 0.446401 0.0761922
2841 2 0.00383261 0.367435 0.0310567
201 1 0.117427 0.369569 0.00260728
642 1 0.117436 0.369538 0.145473
639 2 0.0373838 0.39745 0.072743
647 2 0.0932542 0.411353 0.123227
1015 2 0.00351131 0.346864 0.162801
1078 2 0.00356096 0.489708 0.162824
583 2 0.14642 0.346836 0.0199353
646 2 0.146354 0.489957 0.0197135
146 1 0.260451 0.344291 0.0479101
209 1 0.260406 0.487211 0.04799
199 1 0.208423 0.429992 0.100102
202 2 0.182184 0.457791 0.119284
2858 2 0.236397 0.446538 0.0761292
2850 2 0.146638 0.367496 0.0310499
210 1 0.260268 0.369546 0.00257735
651 1 0.260279 0.369545 0.145442
648 2 0.180235 0.397443 0.072725
656 2 0.236119 0.411343 0.123209
1024 2 0.146399 0.346841 0.162804
1087 2 0.146384 0.489696 0.162813
592 2 0.289239 0.346869 0.0199411
655 2 0.289223 0.489851 0.0198771
155 1 0.403013 0.344308 0.0481774
218 1 0.403098 0.487197 0.048154
208 1 0.351276 0.429997 0.100097
211 2 0.325027 0.457804 0.119301
2867 2 0.379254 0.44654 0.0761276
2859 2 0.289571 0.367472 0.0310361
219 1 0.40305 0.369716 0.00253015
660 1 0.403258 0.369439 0.14551
657 2 0.323112 0.397461 0.0727498
665 2 0.378975 0.411349 0.123209
1033 2 0.289406 0.346894 0.16261
1096 2 0.289258 0.489712 0.162827
601 2 0.432351 0.347016 0.0194831
664 2 0.432296 0.489779 0.0197748
164 1 0.546157 0.344296 0.0479211
227 1 0.545905 0.487196 0.048202
217 1 0.494119 0.42996 0.100078
220 2 0.467843 0.457841 0.119348
2876 2 0.52211 0.446538 0.0761291
2868 2 0.432258 0.367404 0.0309926
228 1 0.545988 0.36954 0.00258228
669 1 0.545988 0.36957 0.145451
666 2 0.466073 0.397557 0.072881
674 2 0.521832 0.411345 0.123209
1042 2 0.432021 0.347024 0.162677
1105 2 0.432159 0.489854 0.162604
610 2 0.57496 0.346876 0.0199327
673 2 0.575208 0.489803 0.0197017
173 1 0.689028 0.344284 0.0479018
236 1 0.688986 0.487166 0.0479495
226 1 0.636995 0.430003 0.100095
229 2 0.6108 0.457751 0.119229
2885 2 0.664966 0.446542 0.076126
2877 2 0.575276 0.367467 0.0310343
237 1 0.688827 0.369553 0.00256861
678 1 0.688898 0.369519 0.145476
675 2 0.608827 0.397462 0.0727523
683 2 0.664688 0.411349 0.123213
1051 2 0.574961 0.34685 0.162815
1114 2 0.575105 0.489768 0.162678
619 2 0.717803 0.34686 0.0199543
682 2 0.717824 0.489732 0.0199619
182 1 0.831881 0.344365 0.0479373
245 1 0.831979 0.487252 0.0478635
235 1 0.779847 0.429998 0.100104
238 2 0.753623 0.457782 0.119271
2894 2 0.807828 0.446542 0.0761239
2886 2 0.71816 0.367485 0.0310398
246 1 0.831805 0.369434 0.00263536
687 1 0.831706 0.369542 0.14544
684 2 0.751677 0.397455 0.0727428
692 2 0.807545 0.411347 0.12321
1060 2 0.718086 0.34695 0.162484
1123 2 0.71795 0.489857 0.162582
128 1 0.974622 0.344302 0.0480272
191 1 0.97486 0.487232 0.0479028
628 2 0.860649 0.347007 0.0197963
691 2 0.860503 0.489909 0.0198949
2840 2 0.950673 0.446517 0.0761349
244 1 0.922731 0.429974 0.100116
247 2 0.896489 0.457773 0.119264
192 1 0.974562 0.369545 0.00258235
633 1 0.974515 0.369608 0.145414
2895 2 0.860917 0.367336 0.0310751
638 2 0.950415 0.411299 0.123232
693 2 0.894555 0.397473 0.072769
1069 2 0.860746 0.346887 0.1627
1132 2 0.860778 0.489694 0.162791
1330 2 0.00355203 0.0612959 0.305497
452 1 0.117562 0.0585706 0.190794
442 1 0.0655665 0.00143765 0.242925
445 2 0.0392805 0.0292601 0.262194
505 1 0.0656342 0.144241 0.242972
14 2 0.093543 0.0179932 0.21897
77 2 0.093546 0.160859 0.218964
69 2 0.00385986 0.0818024 0.173951
510 2 0.00377398 0.0816465 0.316774
957 1 0.117363 0.0839365 0.28824
954 2 0.0374093 0.111755 0.215619
962 2 0.0932919 0.125525 0.266108
1339 2 0.146378 0.0612105 0.305598
461 1 0.260565 0.0586967 0.190706
451 1 0.208411 0.00143365 0.242927
454 2 0.182123 0.0292716 0.262207
514 1 0.208424 0.144293 0.242932
23 2 0.236404 0.0179958 0.218963
86 2 0.236402 0.16085 0.218969
78 2 0.146708 0.0817773 0.173868
519 2 0.146686 0.0818017 0.316652
966 1 0.26026 0.0837651 0.288251
963 2 0.180275 0.111766 0.215632
971 2 0.236113 0.125651 0.26606
1348 2 0.289328 0.0612608 0.305459
470 1 0.4033 0.0585936 0.190804
460 1 0.351276 0.00143974 0.242923
463 2 0.325001 0.0292545 0.262186
523 1 0.351287 0.144291 0.24293
32 2 0.379259 0.0179935 0.218969
95 2 0.379258 0.16085 0.21897
87 2 0.289441 0.0815515 0.173936
528 2 0.28959 0.0816897 0.316843
975 1 0.403097 0.0838489 0.288274
972 2 0.323151 0.111782 0.215655
980 2 0.37897 0.125649 0.266058
1357 2 0.432129 0.0611306 0.305673
479 1 0.546122 0.0585981 0.190826
469 1 0.494132 0.00143767 0.242927
472 2 0.467857 0.0292554 0.262188
532 1 0.494141 0.144298 0.242929
41 2 0.522114 0.0179904 0.218971
104 2 0.522113 0.160851 0.21897
96 2 0.432441 0.0817908 0.173962
537 2 0.432438 0.0817876 0.316726
984 1 0.546081 0.0837186 0.28833
981 2 0.465973 0.111751 0.215611
989 2 0.521825 0.125656 0.266056
1366 2 0.574855 0.061316 0.305579
488 1 0.689037 0.0586353 0.190789
478 1 0.636983 0.00143378 0.242927
481 2 0.610699 0.0292699 0.262207
541 1 0.636999 0.144295 0.242928
50 2 0.664974 0.0179935 0.218966
113 2 0.664971 0.160851 0.21897
105 2 0.575214 0.0817457 0.173862
546 2 0.575192 0.0815957 0.31679
993 1 0.688802 0.0838551 0.288266
990 2 0.608847 0.111766 0.215632
998 2 0.664682 0.125655 0.266057
1375 2 0.717865 0.0611276 0.30567
497 1 0.83182 0.058613 0.190862
487 1 0.77984 0.00143734 0.242923
490 2 0.753583 0.0292453 0.262174
550 1 0.779854 0.144294 0.24293
59 2 0.80783 0.017991 0.21897
122 2 0.807829 0.160852 0.218968
114 2 0.71817 0.0816544 0.174005
555 2 0.71817 0.0818074 0.316718
1002 1 0.83177 0.0837612 0.288327
999 2 0.751715 0.111776 0.215647
1007 2 0.80754 0.125653 0.26606
443 1 0.974729 0.0585915 0.190807
1384 2 0.860845 0.0612756 0.305399
5 2 0.950686 0.0179917 0.218969
68 2 0.950686 0.160852 0.218968
496 1 0.922701 0.00143343 0.242922
499 2 0.896432 0.0292521 0.262183
559 1 0.922716 0.144293 0.242929
948 1 0.974647 0.0837395 0.288336
123 2 0.860945 0.0817538 0.173933
564 2 0.860919 0.0816709 0.316765
953 2 0.950399 0.125649 0.26606
1008 2 0.894551 0.111757 0.215619
1393 2 0.00363705 0.204136 0.305418
515 1 0.117712 0.201536 0.19071
508 2 0.0392564 0.172139 0.262234
568 1 0.0655771 0.287147 0.242928
571 2 0.0392621 0.31499 0.262219
140 2 0.0935451 0.303712 0.218967
132 2 0.00386047 0.224647 0.173944
573 2 0.0037511 0.224499 0.316763
1020 1 0.117382 0.226706 0.288273
1017 2 0.0374067 0.254612 0.215616
1025 2 0.0932571 0.268505 0.266058
1402 2 0.146411 0.203989 0.305675
524 1 0.260374 0.201469 0.190881
517 2 0.182144 0.172112 0.262188
577 1 0.208438 0.287148 0.24293
580 2 0.182112 0.314995 0.262227
149 2 0.236403 0.303713 0.218966
141 2 0.146597 0.224423 0.173953
582 2 0.146722 0.224643 0.316732
1029 1 0.26027 0.226682 0.28829
1026 2 0.180279 0.254626 0.215635
1034 2 0.236116 0.2685 0.266058
1411 2 0.289248 0.204018 0.305639
533 1 0.403306 0.201448 0.190796
526 2 0.324976 0.172135 0.262219
586 1 0.351289 0.287144 0.242932
589 2 0.324953 0.315009 0.262244
158 2 0.379262 0.303714 0.218963
150 2 0.289509 0.224611 0.173935
591 2 0.289555 0.224598 0.316742
1038 1 0.403096 0.226707 0.288273
1035 2 0.323119 0.254611 0.215614
1043 2 0.378972 0.268502 0.26606
1420 2 0.432128 0.203988 0.305673
542 1 0.546118 0.201419 0.190806
535 2 0.467855 0.172115 0.262192
595 1 0.494151 0.287146 0.242926
598 2 0.467815 0.315006 0.262241
167 2 0.522116 0.303713 0.218967
159 2 0.432425 0.224649 0.173941
600 2 0.432439 0.224645 0.316729
1047 1 0.545959 0.226702 0.288276
1044 2 0.465979 0.254613 0.215617
1052 2 0.521829 0.268503 0.266058
1429 2 0.574972 0.203993 0.305673
551 1 0.688982 0.201423 0.190802
544 2 0.61071 0.172117 0.262194
604 1 0.637003 0.287149 0.242929
607 2 0.610683 0.314997 0.262228
176 2 0.664976 0.303715 0.218964
168 2 0.575294 0.224646 0.17387
609 2 0.575289 0.224635 0.316734
1056 1 0.688811 0.226718 0.288278
1053 2 0.608847 0.254623 0.215631
1061 2 0.664686 0.268505 0.26606
1438 2 0.717879 0.203983 0.305664
560 1 0.831672 0.201455 0.190982
553 2 0.753586 0.172099 0.26217
613 1 0.779864 0.28715 0.24293
616 2 0.753566 0.314974 0.262196
185 2 0.807832 0.303714 0.218965
177 2 0.718144 0.224642 0.17387
618 2 0.71815 0.224668 0.316717
1065 1 0.831669 0.22671 0.288276
1062 2 0.751703 0.254622 0.21563
1070 2 0.807543 0.268502 0.266059
506 1 0.974736 0.201447 0.190791
1447 2 0.860699 0.203986 0.30567
131 2 0.950691 0.303722 0.218961
562 2 0.896425 0.172116 0.262193
622 1 0.922731 0.287153 0.242925
625 2 0.89642 0.314977 0.262201
1011 1 0.974655 0.226614 0.288352
186 2 0.860936 0.224567 0.173892
627 2 0.861011 0.22465 0.31673
1016 2 0.950402 0.268498 0.266059
1071 2 0.894564 0.254626 0.215635
1456 2 0.0035258 0.346829 0.30566
1519 2 0.00357682 0.489705 0.305681
578 1 0.117631 0.344318 0.190763
641 1 0.11758 0.487158 0.190807
631 1 0.0655739 0.429999 0.242958
634 2 0.0393267 0.457792 0.262142
203 2 0.0935371 0.446539 0.218985
195 2 0.00387877 0.367526 0.173895
636 2 0.00386437 0.367517 0.316806
1083 1 0.117426 0.369548 0.288302
1080 2 0.0373815 0.397447 0.215586
1088 2 0.0932625 0.411339 0.266072
1465 2 0.146414 0.346898 0.305599
1528 2 0.146462 0.489875 0.30555
587 1 0.260326 0.344303 0.190896
650 1 0.260416 0.487143 0.190806
640 1 0.208468 0.429977 0.242979
643 2 0.182218 0.457759 0.262103
212 2 0.236393 0.44654 0.218987
204 2 0.146655 0.367487 0.173918
645 2 0.146705 0.367478 0.316766
1092 1 0.260257 0.3696 0.288287
1089 2 0.180231 0.397437 0.215576
1097 2 0.236137 0.411274 0.266096
1474 2 0.289278 0.346919 0.305535
1537 2 0.289343 0.486834 0.30664
596 1 0.403375 0.344376 0.190742
659 1 0.403231 0.487223 0.190867
649 1 0.351298 0.429993 0.242954
652 2 0.325524 0.457347 0.261525
221 2 0.379262 0.446545 0.218975
213 2 0.289542 0.367433 0.173914
654 2 0.289523 0.367459 0.316751
1101 1 0.40319 0.369526 0.288339
1098 2 0.323094 0.397442 0.215586
1106 2 0.378979 0.411329 0.266078
1483 2 0.43235 0.34696 0.305318
1546 2 0.43211 0.489721 0.305698
605 1 0.546166 0.344279 0.19077
668 1 0.54601 0.487202 0.190954
658 1 0.494131 0.430006 0.242953
661 2 0.467908 0.457783 0.262129
230 2 0.522109 0.446542 0.218982
222 2 0.432322 0.367319 0.173927
663 2 0.43234 0.367419 0.316792
1110 1 0.546087 0.369432 0.288335
1107 2 0.46597 0.397463 0.215609
1115 2 0.521829 0.411356 0.266068
1492 2 0.574835 0.347058 0.305599
1555 2 0.574845 0.489887 0.305615
614 1 0.688765 0.344319 0.191051
677 1 0.68883 0.487211 0.190974
667 1 0.636992 0.430006 0.242955
670 2 0.610747 0.4578 0.26215
239 2 0.664966 0.446543 0.218981
231 2 0.575276 0.367507 0.173877
672 2 0.575166 0.367265 0.316816
1119 1 0.688814 0.369556 0.288272
1116 2 0.608805 0.397443 0.215581
1124 2 0.664685 0.411356 0.266067
1501 2 0.717811 0.346868 0.305692
1564 2 0.718038 0.489811 0.305438
623 1 0.831822 0.3443 0.190828
686 1 0.831685 0.487081 0.190933
676 1 0.779851 0.43001 0.242952
679 2 0.753655 0.457753 0.262087
248 2 0.807822 0.446538 0.218987
240 2 0.71806 0.367433 0.173933
681 2 0.718195 0.367517 0.31673
1128 1 0.831677 0.369567 0.288286
1125 2 0.751657 0.397439 0.215575
1133 2 0.807541 0.411358 0.266064
569 1 0.974727 0.344255 0.19077
632 1 0.974684 0.487143 0.190812
1510 2 0.860703 0.346842 0.305675
1573 2 0.860673 0.489735 0.305628
194 2 0.950678 0.446537 0.218987
685 1 0.922714 0.429994 0.242953
688 2 0.896412 0.457843 0.262212
1074 1 0.97452 0.369575 0.288272
249 2 0.860984 0.367447 0.173907
690 2 0.861014 0.367517 0.316727
1079 2 0.950405 0.411345 0.266069
1134 2 0.894537 0.397458 0.215601
1771 2 0.00355215 0.061134 0.448531
893 1 0.117581 0.0586313 0.333611
1334 1 0.117622 0.0586519 0.476441
883 1 0.0655247 0.00141165 0.385806
886 2 0.0392796 0.0292571 0.405051
946 1 0.0656012 0.144271 0.385804
455 2 0.0935219 0.0179279 0.361859
518 2 0.0935423 0.160849 0.361831
951 2 0.00386398 0.0817868 0.459585
1398 1 0.117232 0.0838943 0.43097
1395 2 0.0374262 0.111771 0.358499
1403 2 0.0932719 0.125589 0.408933
1780 2 0.146352 0.0611721 0.448443
902 1 0.260315 0.0586131 0.333783
1343 1 0.260552 0.0586878 0.476427
892 1 0.208414 0.00142582 0.385779
895 2 0.182128 0.0292685 0.405056
955 1 0.20842 0.144278 0.385775
464 2 0.236404 0.0179913 0.361826
527 2 0.2364 0.160851 0.361826
960 2 0.146857 0.0818464 0.459598
1407 1 0.260379 0.0837103 0.431193
1404 2 0.180324 0.111811 0.358546
1412 2 0.236113 0.125651 0.408913
1789 2 0.289123 0.0613287 0.448434
911 1 0.403261 0.0585627 0.333663
1352 1 0.4031 0.0586263 0.476704
901 1 0.351277 0.00143518 0.385779
904 2 0.324971 0.0292821 0.405081
964 1 0.351286 0.144293 0.385787
473 2 0.379255 0.0179925 0.361827
536 2 0.379256 0.16085 0.361828
969 2 0.289459 0.0815657 0.459652
1416 1 0.403197 0.0837652 0.431186
1413 2 0.323138 0.111771 0.358497
1421 2 0.37897 0.125651 0.408915
1798 2 0.432299 0.0612654 0.448229
920 1 0.546236 0.0586726 0.333596
1361 1 0.546162 0.0586415 0.476498
910 1 0.494118 0.00142918 0.385784
913 2 0.467842 0.0292694 0.405063
973 1 0.494157 0.144281 0.385794
482 2 0.522116 0.017987 0.361828
545 2 0.522113 0.160851 0.361828
978 2 0.432338 0.0816569 0.459619
1425 1 0.545882 0.083882 0.431043
1422 2 0.465994 0.111769 0.358494
1430 2 0.521836 0.125622 0.408926
1807 2 0.574962 0.0611661 0.4485
929 1 0.688941 0.0585492 0.333693
1370 1 0.688949 0.0587002 0.476584
919 1 0.636984 0.00143505 0.385779
922 2 0.610749 0.029224 0.404997
982 1 0.637031 0.144272 0.385802
491 2 0.66497 0.0179863 0.36183
554 2 0.664967 0.160854 0.361825
987 2 0.575364 0.08185 0.459655
1434 1 0.688992 0.0838478 0.431259
1431 2 0.608869 0.111784 0.358515
1439 2 0.664694 0.12559 0.408942
1816 2 0.717996 0.0613162 0.44849
938 1 0.831674 0.0586215 0.333845
1379 1 0.831879 0.0586061 0.47651
928 1 0.779841 0.00144806 0.385787
931 2 0.753683 0.0291668 0.404909
991 1 0.779854 0.144295 0.385782
500 2 0.80783 0.0179937 0.361823
563 2 0.807829 0.160852 0.361826
996 2 0.718014 0.0819617 0.459727
1443 1 0.831689 0.0838484 0.431148
1440 2 0.751709 0.11177 0.358496
1448 2 0.80754 0.125657 0.408914
884 1 0.974667 0.0586396 0.333719
1325 1 0.974695 0.0585653 0.476516
1825 2 0.860698 0.0611242 0.448521
446 2 0.950689 0.0179939 0.361825
509 2 0.950689 0.160855 0.361823
937 1 0.922699 0.00143205 0.385783
940 2 0.896451 0.0292359 0.405018
1000 1 0.922715 0.144291 0.385791
1389 1 0.97453 0.0838485 0.431134
1005 2 0.860943 0.0817826 0.45962
1394 2 0.950399 0.125646 0.408917
1449 2 0.894569 0.111773 0.358498
1834 2 0.00354289 0.20399 0.448508
956 1 0.117548 0.201416 0.333664
1397 1 0.117595 0.201454 0.476506
949 2 0.0392995 0.1721 0.405034
1009 1 0.0655801 0.287151 0.385786
1012 2 0.0392765 0.314976 0.405058
581 2 0.0935469 0.303714 0.361823
1014 2 0.00383555 0.224634 0.459652
1461 1 0.117387 0.226711 0.431138
1458 2 0.0374165 0.254621 0.358485
1466 2 0.0932586 0.268502 0.408916
1843 2 0.146409 0.203974 0.448513
965 1 0.260438 0.201444 0.333637
1406 1 0.260445 0.201441 0.476488
958 2 0.182145 0.17211 0.405042
1018 1 0.208446 0.287154 0.385781
1021 2 0.182129 0.314984 0.405065
590 2 0.236406 0.303726 0.361814
1023 2 0.146681 0.224643 0.459637
1470 1 0.26027 0.22669 0.431149
1467 2 0.180278 0.254625 0.358491
1475 2 0.236114 0.2685 0.408914
1852 2 0.289241 0.204012 0.44851
974 1 0.403261 0.201419 0.333662
1415 1 0.403273 0.201419 0.476509
967 2 0.324979 0.172132 0.405072
1027 1 0.351295 0.287142 0.385787
1030 2 0.324929 0.315033 0.405135
599 2 0.379263 0.303716 0.36182
1032 2 0.28955 0.224606 0.459593
1479 1 0.403101 0.22671 0.431134
1476 2 0.323138 0.254627 0.358493
1484 2 0.378975 0.268496 0.408918
1861 2 0.432123 0.20399 0.448526
983 1 0.546133 0.201424 0.333652
1424 1 0.546122 0.201421 0.476517
976 2 0.467843 0.172125 0.405066
1036 1 0.494141 0.287142 0.385792
1039 2 0.467816 0.315006 0.405097
608 2 0.522122 0.303715 0.361819
1041 2 0.432441 0.224644 0.459592
1488 1 0.545957 0.226706 0.431135
1485 2 0.465991 0.254624 0.35849
1493 2 0.521829 0.268502 0.408918
1870 2 0.574984 0.203989 0.44853
992 1 0.688928 0.201402 0.33371
1433 1 0.68914 0.201546 0.476424
985 2 0.610713 0.172114 0.405051
1045 1 0.637004 0.287149 0.385785
1048 2 0.610683 0.314997 0.405085
617 2 0.664971 0.303712 0.361825
1050 2 0.575291 0.224643 0.459584
1497 1 0.688938 0.22658 0.431188
1494 2 0.60885 0.254626 0.358493
1502 2 0.664686 0.268503 0.408919
1879 2 0.717686 0.20419 0.448472
1001 1 0.831834 0.201418 0.333664
1442 1 0.831849 0.201428 0.476505
994 2 0.753559 0.172124 0.405061
1054 1 0.779863 0.287149 0.385786
1057 2 0.753567 0.314973 0.405053
626 2 0.807829 0.30371 0.361827
1059 2 0.718019 0.224422 0.45966
1506 1 0.831669 0.226702 0.431129
1503 2 0.7517 0.25462 0.358484
1511 2 0.807543 0.268504 0.408915
947 1 0.974619 0.201494 0.333766
1388 1 0.974735 0.201455 0.476513
1888 2 0.860687 0.203991 0.448527
572 2 0.95069 0.303713 0.361822
1003 2 0.896421 0.17212 0.405056
1063 1 0.92272 0.287152 0.385784
1066 2 0.896437 0.314961 0.405036
1452 1 0.974523 0.226701 0.431127
1068 2 0.861011 0.224636 0.459591
1457 2 0.950401 0.268505 0.408916
1512 2 0.894557 0.254619 0.358483
1897 2 0.00368223 0.346907 0.448326
1960 2 0.00352327 0.489866 0.448389
1019 1 0.117554 0.34429 0.333674
1460 1 0.11757 0.344284 0.476502
1082 1 0.117434 0.487223 0.333741
1523 1 0.11753 0.487141 0.476544
1072 1 0.0655266 0.429977 0.385833
1075 2 0.0392983 0.457812 0.40503
644 2 0.0935155 0.446478 0.361872
1077 2 0.00386458 0.367475 0.45969
1524 1 0.117393 0.369548 0.431143
1521 2 0.03737 0.397438 0.358434
1529 2 0.0932536 0.411359 0.408927
1906 2 0.146408 0.346845 0.448529
1969 2 0.146431 0.489705 0.448534
1028 1 0.260396 0.344286 0.333679
1469 1 0.260563 0.344381 0.476419
1091 1 0.260544 0.486955 0.333462
1532 1 0.260381 0.487133 0.476544
1081 1 0.208408 0.429976 0.385845
1084 2 0.182177 0.457796 0.405007
653 2 0.236392 0.446504 0.36185
1086 2 0.146721 0.367491 0.4596
1533 1 0.260372 0.369451 0.431197
1530 2 0.180232 0.397441 0.358436
1538 2 0.236124 0.411324 0.408938
1915 2 0.289126 0.347042 0.4484
1978 2 0.289264 0.489721 0.44856
1037 1 0.403083 0.344321 0.333878
1478 1 0.403411 0.344382 0.476428
1100 1 0.403265 0.487155 0.333667
1541 1 0.403051 0.487196 0.476768
1090 1 0.351281 0.429999 0.385808
1093 2 0.32505 0.457784 0.404988
662 2 0.37925 0.446541 0.361842
1095 2 0.289485 0.367306 0.459679
1542 1 0.40323 0.369446 0.431196
1539 2 0.323119 0.397468 0.358473
1547 2 0.378974 0.411348 0.408926
1924 2 0.431983 0.347037 0.448448
1987 2 0.432342 0.4898 0.448288
1046 1 0.546292 0.34441 0.33356
1487 1 0.546165 0.344283 0.476478
1109 1 0.546243 0.487263 0.333596
1550 1 0.545879 0.487186 0.476777
1099 1 0.494135 0.430005 0.385817
1102 2 0.467941 0.457752 0.404945
671 2 0.522113 0.446544 0.361837
1104 2 0.432338 0.367313 0.459668
1551 1 0.545967 0.369554 0.431137
1548 2 0.465939 0.397435 0.358427
1556 2 0.521829 0.411353 0.408923
1933 2 0.574951 0.346858 0.448527
1996 2 0.575211 0.48983 0.448247
1055 1 0.688972 0.344254 0.333661
1496 1 0.689025 0.3443 0.476506
1118 1 0.688778 0.487203 0.333896
1559 1 0.68891 0.487188 0.4766
1108 1 0.636988 0.430003 0.385811
1111 2 0.610769 0.457779 0.404981
680 2 0.664968 0.446541 0.361841
1113 2 0.575303 0.367486 0.459609
1560 1 0.688798 0.369571 0.431124
1557 2 0.608835 0.39747 0.358477
1565 2 0.664687 0.411355 0.408923
1942 2 0.717836 0.34683 0.448513
2005 2 0.717904 0.489784 0.448411
1064 1 0.831833 0.344268 0.333664
1505 1 0.831599 0.344274 0.476763
1127 1 0.831879 0.487177 0.333625
1568 1 0.831626 0.487195 0.476767
1117 1 0.779833 0.429991 0.385817
1120 2 0.753605 0.457795 0.405004
689 2 0.807812 0.446512 0.361855
1122 2 0.718145 0.367515 0.459662
1569 1 0.831629 0.369518 0.431071
1566 2 0.751682 0.397461 0.358466
1574 2 0.807541 0.411359 0.408928
1010 1 0.974766 0.344297 0.333622
1451 1 0.974581 0.3443 0.476663
1073 1 0.974672 0.487144 0.333688
1514 1 0.974705 0.487226 0.476546
1951 2 0.860896 0.346937 0.448267
2014 2 0.860922 0.489801 0.448272
635 2 0.950679 0.44654 0.361842
1126 1 0.922711 0.429999 0.385807
1129 2 0.896498 0.457764 0.404963
1515 1 0.974534 0.36954 0.431124
1131 2 0.86109 0.367472 0.459707
1520 2 0.950402 0.411349 0.408927
1575 2 0.89454 0.397461 0.358465
2212 2 0.00377572 0.061234 0.59106
1775 1 0.117581 0.0586664 0.619338
1324 1 0.06548 0.00138181 0.528679
1327 2 0.0392342 0.0292942 0.547957
1387 1 0.0655743 0.144291 0.528646
896 2 0.0935021 0.0178685 0.504745
1337 2 0.0935071 0.0178814 0.647599
959 2 0.0935451 0.160852 0.504683
1400 2 0.0935427 0.160849 0.647543
1392 2 0.0038301 0.0817238 0.602368
1839 1 0.117384 0.0838458 0.573961
1836 2 0.0374169 0.111764 0.501345
2277 2 0.0375173 0.111853 0.644323
1844 2 0.093258 0.12564 0.551773
2221 2 0.146416 0.0612019 0.591334
1784 1 0.2602 0.058589 0.619606
1333 1 0.20841 0.00142849 0.528641
1336 2 0.182156 0.0292445 0.547881
1396 1 0.208411 0.144255 0.528618
905 2 0.236403 0.017994 0.504678
1346 2 0.236401 0.0179932 0.647539
968 2 0.236399 0.160851 0.504683
1409 2 0.236402 0.160851 0.647538
1401 2 0.146734 0.0818041 0.602392
1848 1 0.260223 0.0838102 0.573951
1845 2 0.180388 0.111866 0.501483
2286 2 0.18033 0.111813 0.644267
1853 2 0.236112 0.12565 0.551772
2230 2 0.289471 0.0612099 0.591111
1793 1 0.403408 0.0586874 0.619285
1342 1 0.351265 0.00143434 0.528635
1345 2 0.325014 0.0292427 0.547885
1405 1 0.351288 0.144293 0.528642
914 2 0.379258 0.0179924 0.504681
1355 2 0.379261 0.0179943 0.647536
977 2 0.379257 0.160853 0.504684
1418 2 0.379256 0.160851 0.647541
1410 2 0.289593 0.08174 0.60255
1857 1 0.403239 0.0837118 0.574055
1854 2 0.323154 0.111785 0.501373
2295 2 0.32313 0.111764 0.6442
1862 2 0.37897 0.12565 0.551771
2239 2 0.431983 0.0613256 0.591288
1802 1 0.546274 0.0586948 0.61928
1351 1 0.494138 0.00133767 0.528725
1354 2 0.467825 0.0292793 0.547952
1414 1 0.49414 0.144295 0.528642
923 2 0.522099 0.0178833 0.504765
1364 2 0.522116 0.0179925 0.647535
986 2 0.522114 0.160851 0.504684
1427 2 0.522114 0.160851 0.647539
1419 2 0.432312 0.0815673 0.602505
1866 1 0.546099 0.0837082 0.574054
1863 2 0.466001 0.111776 0.50136
2304 2 0.466009 0.111783 0.644227
1871 2 0.521826 0.125654 0.551771
2248 2 0.574837 0.0613331 0.591294
1811 1 0.688819 0.0586827 0.619535
1360 1 0.636908 0.00140287 0.528668
1363 2 0.610681 0.0292811 0.547939
1423 1 0.637004 0.144269 0.528653
932 2 0.66495 0.0179097 0.504751
1373 2 0.66493 0.0178673 0.647604
995 2 0.664977 0.160853 0.504682
1436 2 0.664972 0.160851 0.64754
1428 2 0.575161 0.0815557 0.602504
1875 1 0.688766 0.0838415 0.573914
1872 2 0.608858 0.111774 0.501354
2313 2 0.60887 0.111786 0.644233
1880 2 0.664693 0.125613 0.55178
2257 2 0.718058 0.0612399 0.591027
1820 1 0.831781 0.0586386 0.619461
1369 1 0.779834 0.00143072 0.528631
1372 2 0.753552 0.0292727 0.547918
1432 1 0.779901 0.14438 0.528698
941 2 0.807826 0.0179848 0.504685
1382 2 0.80783 0.0179874 0.647542
1004 2 0.807826 0.160853 0.504681
1445 2 0.80783 0.160848 0.647542
1437 2 0.718168 0.0817595 0.602421
1884 1 0.831784 0.0837405 0.574046
1881 2 0.75142 0.111492 0.500977
2322 2 0.751811 0.111861 0.644334
1889 2 0.80754 0.125655 0.551778
1766 1 0.974561 0.0586832 0.6195
2266 2 0.860735 0.0612879 0.591179
887 2 0.950684 0.0179953 0.504681
1328 2 0.95065 0.0178743 0.647603
950 2 0.950687 0.160849 0.504686
1391 2 0.950687 0.160852 0.647539
1378 1 0.922703 0.00144821 0.528635
1381 2 0.896422 0.0292616 0.547909
1441 1 0.922722 0.144282 0.52865
1830 1 0.974531 0.0838277 0.573962
1446 2 0.860918 0.0816461 0.602486
1835 2 0.950404 0.125627 0.551775
1890 2 0.894557 0.111761 0.501341
2331 2 0.894576 0.111779 0.644222
2275 2 0.00377815 0.204095 0.591102
1838 1 0.117556 0.201422 0.619369
1390 2 0.0393151 0.172086 0.547868
1450 1 0.0655772 0.287147 0.528644
1453 2 0.0392515 0.315 0.547946
1022 2 0.0935426 0.303709 0.504684
1463 2 0.0935431 0.303712 0.647539
1455 2 0.0037405 0.224574 0.602476
1902 1 0.117387 0.226704 0.573991
1899 2 0.0374083 0.254614 0.501333
2340 2 0.0374047 0.254612 0.644186
1907 2 0.0932566 0.268504 0.551773
2284 2 0.146406 0.20399 0.591387
1847 1 0.26022 0.201478 0.619588
1399 2 0.182133 0.172122 0.547912