ITEM: TIMESTEP
0
ITEM: NUMBER OF ATOMS
648
ITEM: BOX BOUNDS pp pp pp
0.0000000000000000e+00 2.1480000000000000e+01
0.0000000000000000e+00 2.1480000000000000e+01
0.0000000000000000e+00 2.1480000000000000e+01
ITEM: ATOMS id type q x y z ix iy iz mass element vx vy vz
3 3 1.91721 3.60501 3.53088 0.0451153 0 0 0 28.086 Si 0.0047263 -0.000223502 0.0131211
6 3 2.05139 1.83362 1.75561 1.83766 0 0 0 28.086 Si -0.00118334 -0.0034038 -0.00346536
9 2 -1.00935 0.929448 0.920884 0.934124 0 0 0 15.999 O 0.000809364 0.000748591 0.00384018
18 2 -1.08884 2.69143 0.872928 2.75213 0 0 0 15.999 O 0.00311452 -0.00673655 0.0119835
19 2 -1.01209 2.71469 2.706 0.971349 0 0 0 15.999 O 0.00548929 0.00550315 0.00320349
23 2 -1.01097 0.853957 2.62249 2.65483 0 0 0 15.999 O -0.00714135 -0.00455276 0.000714536
2 3 2.02384 0.00220953 3.55275 3.53079 0 0 0 28.086 Si 0.00579801 -0.012618 -0.00160535
4 3 2.20764 3.5724 0.00131267 3.64119 0 0 0 28.086 Si -0.00161248 -0.00490475 -0.00587897
21 2 -1.12924 4.41797 0.837002 4.51687 0 0 0 15.999 O -0.0059526 -0.00734992 0.00826871
33 2 -1.02631 8.05124 0.914439 0.93194 0 0 0 15.999 O -0.00217477 0.00130061 0.000884478
47 2 -1.02728 8.05451 2.73233 2.68641 0 0 0 15.999 O -0.00390134 0.00766942 0.00102029
10 2 -1.05268 6.17885 2.62115 4.44491 0 0 0 15.999 O -0.00408301 -0.00184639 0.00119587
26 3 2.06461 7.12968 3.5411 3.56068 0 0 0 28.086 Si -0.000801307 -0.00684306 -0.00551092
5 3 2.10346 5.34209 1.74411 5.31644 0 0 0 28.086 Si -0.00682154 0.00356765 0.0107748
25 3 1.91161 7.20645 0.000722803 0.0364685 0 0 0 28.086 Si 0.00648226 -0.00507466 0.00381238
30 3 2.08295 8.96048 1.77034 1.79935 0 0 0 28.086 Si -0.00509769 -0.00215753 -0.00467958
42 2 -1.06441 9.81928 0.894002 2.7158 0 0 0 15.999 O -0.000444928 -0.000771178 0.00444996
43 2 -1.01082 9.81484 2.58247 0.891711 0 0 0 15.999 O -0.00350335 -0.00822692 -0.00104454
27 3 1.88662 10.7576 3.54446 0.0393841 0 0 0 28.086 Si 0.00342547 -0.00450909 0.00819735
45 2 -1.02366 11.6633 0.909598 4.44429 0 0 0 15.999 O 0.00431413 0.00141333 -0.00720501
28 3 2.08155 10.7276 0.00135281 3.56955 0 0 0 28.086 Si -0.00965112 -0.00355989 -0.00815755
29 3 1.92834 12.5145 1.74735 5.36505 0 0 0 28.086 Si -0.000425061 -0.00375857 0.00316916
57 2 -1.01033 15.2303 0.851714 0.862557 0 0 0 15.999 O 0.0029253 -0.00488352 -0.00252589
71 2 -1.0164 15.1285 2.68995 2.69472 0 0 0 15.999 O -0.00805303 0.00423682 0.00235778
34 2 -0.962345 13.4125 2.76378 4.40155 0 0 0 15.999 O -0.000890041 0.00870097 -0.00959654
50 3 2.07565 14.3044 3.59192 3.53231 0 0 0 28.086 Si -0.00523015 0.00622583 -0.00139745
54 3 1.87975 16.0896 1.79939 1.79316 0 0 0 28.086 Si 0.00136599 -0.00140496 0.00624489
66 2 -0.982605 17.0533 0.805328 2.6915 0 0 0 15.999 O 0.00796245 -0.00959923 0.00124483
67 2 -0.965507 16.983 2.73879 0.96228 0 0 0 15.999 O -0.00111925 0.00581311 0.00772843
58 2 -1.00308 20.6264 2.64463 4.51757 0 0 0 15.999 O 0.00108503 -0.00572229 0.00397138
69 2 -0.997366 18.8123 1.00106 4.43562 0 0 0 15.999 O 0.00156658 0.0189234 -0.00586179
53 3 1.99621 19.683 1.83474 5.32846 0 0 0 28.086 Si -0.00326453 0.00809427 -0.000406416
51 3 1.8841 17.8556 3.60867 0.0209886 0 0 0 28.086 Si -0.000501495 -0.000727365 0.00091569
16 2 -0.976389 0.853587 4.42011 4.4694 0 0 0 15.999 O -0.00571444 -0.00626508 0.000577375
81 2 -0.964382 0.95585 8.05317 0.953644 0 0 0 15.999 O 0.0085623 0.00177208 0.00821649
90 2 -0.959036 2.73117 7.98816 2.72719 0 0 0 15.999 O 0.00628334 -0.00672304 0.00859578
13 2 -0.994338 2.65999 6.1947 4.40404 0 0 0 15.999 O -0.00293948 -0.00698329 -0.0132543
76 3 2.0197 3.60254 7.1257 3.57769 0 0 0 28.086 Si 0.00684153 0.00697255 -0.00191778
7 3 1.88681 1.78786 5.36256 5.32603 0 0 0 28.086 Si -0.00568887 -0.00389277 -0.00685702
24 2 -0.966806 4.56734 4.42815 0.904475 0 0 0 15.999 O 0.0100189 -0.00624601 0.00197194
14 2 -0.999149 6.33769 4.49156 2.71798 0 0 0 15.999 O 0.0106155 0.00376004 0.00370676
40 2 -0.915994 7.94239 4.46287 4.44103 0 0 0 15.999 O -0.0145036 0.00101019 -0.00516603
12 2 -1.0074 4.47266 6.2826 2.61429 0 0 0 15.999 O -0.00101648 0.00262963 -0.00602956
93 2 -0.974773 4.47965 7.99923 4.49217 0 0 0 15.999 O -0.000274985 -0.00851005 0.00428259
8 3 1.99019 5.41969 5.39754 1.77635 0 0 0 28.086 Si 0.000462729 -0.00234631 -0.00170021
17 2 -1.03729 6.29089 6.28743 0.915397 0 0 0 15.999 O 0.00377164 0.00192146 0.00258384
105 2 -1.00503 7.98821 8.03185 0.886671 0 0 0 15.999 O -0.00857564 -0.00706581 0.00595687
48 2 -1.00625 11.6586 4.49549 0.895111 0 0 0 15.999 O 0.00456088 0.00763646 -0.00823299
114 2 -0.978431 9.89498 8.04584 2.65668 0 0 0 15.999 O 0.00657774 -0.000762821 -0.00507445
37 2 -0.98114 9.81103 6.34727 4.48109 0 0 0 15.999 O -0.00307848 0.0103215 -0.00152197
32 3 2.10488 12.5267 5.36553 1.7756 0 0 0 28.086 Si -0.00247965 -0.00880392 0.00465168
36 2 -1.02584 11.6038 6.18664 2.68402 0 0 0 15.999 O -0.00438901 -0.00544555 0.00273844
100 3 2.043 10.7197 7.16884 3.53479 0 0 0 28.086 Si -0.000447986 0.000889305 0.00111411
117 2 -0.936866 11.6039 8.0422 4.37606 0 0 0 15.999 O -0.00771636 -0.00511267 -0.0117988
38 2 -1.03609 13.3698 4.43069 2.64934 0 0 0 15.999 O -0.0078476 -0.0130838 -0.00825221
64 2 -1.01942 15.2565 4.53202 4.39823 0 0 0 15.999 O 0.00822788 0.00898996 -0.0139202
41 2 -1.02414 13.4157 6.23498 0.921798 0 0 0 15.999 O 0.000336476 -0.0074719 0.000913527
129 2 -1.0318 15.1904 8.0688 0.842612 0 0 0 15.999 O -0.00122269 -0.00170469 -0.00995248
138 2 -1.05572 16.9577 8.12599 2.61816 0 0 0 15.999 O -0.00646098 0.0048024 -0.00681384
61 2 -0.976994 17.0435 6.28033 4.43313 0 0 0 15.999 O 0.00460281 0.00178337 -0.00469917
55 3 1.97439 16.119 5.36916 5.31642 0 0 0 28.086 Si 0.00956201 -0.00131507 -0.0090634
62 2 -1.00166 20.554 4.39919 2.69529 0 0 0 15.999 O -0.0023348 -0.00747764 -0.00173486
72 2 -0.962433 18.8268 4.44301 0.924464 0 0 0 15.999 O 0.00252913 -0.00198036 0.00139754
56 3 1.92353 19.7068 5.34075 1.76352 0 0 0 28.086 Si -0.000769417 0.00274211 -0.00506988
60 2 -0.935529 18.7353 6.39444 2.63009 0 0 0 15.999 O -0.00442694 0.0233666 -0.00889497
65 2 -0.958479 20.6109 6.17998 0.888873 0 0 0 15.999 O 0.00327503 -0.0111886 0.000725052
124 3 1.93892 17.8465 7.21211 3.51203 0 0 0 28.086 Si -0.011615 -0.000542892 -0.00193804
141 2 -0.981157 18.8311 8.07507 4.54521 0 0 0 15.999 O 0.00739251 0.00331787 0.0116817
78 3 1.99337 1.78009 8.98176 1.7783 0 0 0 28.086 Si -0.0116905 0.00199074 0.00325889
91 2 -0.990417 2.58829 9.85963 0.897823 0 0 0 15.999 O -0.0103352 -0.00024402 -0.00185903
95 2 -0.978555 0.871036 9.78812 2.70556 0 0 0 15.999 O -0.00435277 -0.0142923 0.00521372
88 2 -0.92437 0.924477 11.5864 4.44263 0 0 0 15.999 O 0.00042971 -0.0093301 -0.00546573
79 3 1.79991 1.81009 12.5709 5.33125 0 0 0 28.086 Si 0.00268164 0.00916587 -0.00131417
75 3 2.04189 3.64638 10.7838 0.0299542 0 0 0 28.086 Si 0.00631378 0.00767537 -0.00230911
119 2 -0.995199 7.92782 9.88778 2.68767 0 0 0 15.999 O -0.0154357 0.00183752 0.00145068
82 2 -0.97879 6.33156 9.91365 4.39335 0 0 0 15.999 O 0.0103873 0.00593101 -0.00921691
96 2 -1.15989 4.56262 11.6126 0.900727 0 0 0 15.999 O 0.0152352 -0.000935308 0.00439506
80 3 2.34677 5.40119 12.5013 1.74934 0 0 0 28.086 Si 0.00355233 -0.00403829 -0.0108918
86 2 -1.20022 6.30994 11.7246 2.65995 0 0 0 15.999 O 0.00021604 0.00616535 -0.0070794
98 3 2.13979 7.09884 10.8247 3.49452 0 0 0 28.086 Si -0.00106476 0.00941633 -0.000143791
112 2 -0.996284 8.07722 11.6686 4.50276 0 0 0 15.999 O 0.0019962 0.00251092 0.00616395
102 3 1.8572 8.88986 8.95941 1.77854 0 0 0 28.086 Si -0.00729041 0.00621047 -0.00132268
115 2 -0.961793 9.8199 9.86095 0.90915 0 0 0 15.999 O -0.00239788 0.00505946 0.0039202
104 3 1.93468 12.5218 12.5183 1.78399 0 0 0 28.086 Si 0.0075925 0.00227655 -0.00549368
120 2 -0.918775 11.5189 11.5858 0.833256 0 0 0 15.999 O -0.017867 -0.00536027 -0.00642773
143 2 -1.02033 15.2529 9.77791 2.68345 0 0 0 15.999 O 0.00261377 -0.00495962 0.000691485
106 2 -0.964443 13.3913 9.84486 4.49364 0 0 0 15.999 O -0.00308698 3.43909e-06 -0.001171
126 3 2.14447 16.078 8.95502 1.76454 0 0 0 28.086 Si -0.00477599 0.000777528 -0.00517916
139 2 -1.07579 17.0281 9.8132 0.898862 0 0 0 15.999 O 0.00416701 -0.000404264 -0.00375464
110 2 -0.960449 13.3806 11.6538 2.61904 0 0 0 15.999 O -0.00458767 -0.000625272 -0.00568156
122 3 1.83146 14.3478 10.7281 3.5984 0 0 0 28.086 Si 0.00356279 0.00104529 0.00201452
136 2 -0.987687 15.2447 11.6054 4.52046 0 0 0 15.999 O 0.00378992 -0.00499594 0.0080139
74 3 1.89734 21.4665 10.7336 3.59415 -1 0 0 28.086 Si 0.00550096 0.00156477 0.000210685
130 2 -1.00345 20.5636 9.86117 4.55802 0 0 0 15.999 O -0.00491549 -0.00199631 0.0200411
123 3 2.13165 17.8958 10.7123 0.0473247 0 0 0 28.086 Si -0.0073497 0.000577906 0.00475801
128 3 2.02821 19.6829 12.5427 1.75084 0 0 0 28.086 Si 0.000186247 -0.000175512 0.0087804
134 2 -0.969083 20.5897 11.6723 2.61753 0 0 0 15.999 O -0.00239698 0.00827701 -0.0133661
144 2 -1.04976 18.7657 11.6239 0.853645 0 0 0 15.999 O -0.00153165 4.09403e-05 -0.00722245
153 2 -0.996572 0.87441 15.2036 0.823744 0 0 0 15.999 O -0.00266111 -0.000246506 -0.00658542
162 2 -0.978138 2.74168 15.2687 2.66709 0 0 0 15.999 O 0.00382407 0.00739672 -0.00155281
85 2 -0.94522 2.69033 13.4303 4.38846 0 0 0 15.999 O 0.000149617 -0.00068234 -0.00920988
148 3 1.89435 3.64109 14.2613 3.4728 0 0 0 28.086 Si 0.00295797 -0.000302142 -0.00173803
150 3 1.99496 1.81037 16.0909 1.77528 0 0 0 28.086 Si 0.00344186 0.00206137 -0.00265257
163 2 -0.978909 2.68253 16.9453 0.87236 0 0 0 15.999 O -0.00124082 -0.00611957 -0.00209517
167 2 -0.976093 0.926875 16.9566 2.66525 0 0 0 15.999 O 0.00474342 -0.00646823 -0.00358495
84 2 -1.10646 4.4776 13.344 2.60369 0 0 0 15.999 O -0.00176558 -0.0176958 -0.00974795
165 2 -0.944611 4.5694 15.2114 4.52413 0 0 0 15.999 O 0.0143719 0.00970384 0.00935103
89 2 -1.20117 6.24989 13.3409 0.861231 0 0 0 15.999 O 0.000170196 -0.0131279 -0.00742409
169 3 2.18498 7.09549 14.2052 0.0343633 0 0 0 28.086 Si -0.00376259 -0.00057207 0.00704257
177 2 -1.00372 8.001 15.091 0.875408 0 0 0 15.999 O -0.00227333 -0.01364 -0.000634731
191 2 -0.985912 8.08942 17.0034 2.63176 0 0 0 15.999 O 0.00416842 -7.44329e-05 -0.00633569
154 2 -0.99218 6.28102 17.005 4.46751 0 0 0 15.999 O 0.00103242 -0.0028675 -0.00215453
186 2 -0.969538 9.83056 15.2896 2.61451 0 0 0 15.999 O -0.000901289 0.0111648 -0.0123811
109 2 -0.980463 9.83308 13.485 4.51242 0 0 0 15.999 O 0.00212758 0.00884163 0.00798743
108 2 -1.00436 11.5553 13.4261 2.69296 0 0 0 15.999 O -0.0100082 -0.00184408 -0.000568376
172 3 2.01268 10.7614 14.3237 3.5557 0 0 0 28.086 Si -0.00993926 0.00170609 -0.00145871
189 2 -0.990492 11.6287 15.2283 4.36503 0 0 0 15.999 O -0.00157357 -0.000199017 -0.0101639
174 3 2.0345 8.9301 16.118 1.76907 0 0 0 28.086 Si -0.00288681 -0.00279304 -0.000370919
187 2 -1.02728 9.87619 16.9686 0.909693 0 0 0 15.999 O 0.0039385 -0.00508615 0.00175165
173 3 1.87986 12.5402 16.0793 5.35481 0 0 0 28.086 Si 0.015476 0.000216903 -0.00141075
113 2 -0.962061 13.3681 13.3503 0.859272 0 0 0 15.999 O -0.00760719 -0.0117938 -0.00722196
201 2 -0.992114 15.2031 15.1479 0.910242 0 0 0 15.999 O -0.00174968 -0.00331927 0.00106736
210 2 -0.982118 17.0795 15.2248 2.69872 0 0 0 15.999 O 0.00595311 0.00062925 0.000784384
133 2 -1.01549 17.0443 13.4479 4.51823 0 0 0 15.999 O 0.00550033 0.0029852 0.0063372
215 2 -0.935799 15.1809 16.9814 2.61778 0 0 0 15.999 O -0.00113765 -0.00508393 -0.0065862
178 2 -0.946043 13.42 17.0501 4.49416 0 0 0 15.999 O -0.000699569 0.00511326 -0.000280579
198 3 1.85499 16.0961 16.1077 1.77799 0 0 0 28.086 Si -0.00516378 0.00793751 0.00545256
211 2 -0.974167 17.0014 17.0987 0.807768 0 0 0 15.999 O 0.000831733 0.00984237 -0.00455602
193 3 1.96015 14.349 14.3237 0.00178512 0 0 0 28.086 Si -0.00139198 -0.00121774 -0.00522125
132 2 -0.995316 18.8368 13.4515 2.64299 0 0 0 15.999 O 0.00669283 0.00588189 -0.0058503
137 2 -1.01305 20.5814 13.3888 0.860032 0 0 0 15.999 O -0.00108465 -0.00346736 -0.00172839
196 3 1.95667 17.8954 14.3286 3.57169 0 0 0 28.086 Si 0.00126973 -0.00322655 -0.00759038
213 2 -1.00287 18.8238 15.2387 4.52214 0 0 0 15.999 O 0.0054328 -0.000725271 0.0097547
202 2 -0.980442 20.5997 16.9399 4.47405 0 0 0 15.999 O -0.000580342 -0.00758975 0.00133042
197 3 2.17531 19.7044 16.1234 5.34934 0 0 0 28.086 Si -0.00156759 0.00547378 -0.00896779
145 3 1.96421 21.461 14.3376 0.00290094 -1 0 0 28.086 Si -0.00466522 -0.00113361 -0.000475636
146 3 1.84105 0.0638271 17.917 3.55588 0 0 0 28.086 Si 0.00776958 0.00248093 -0.00677865
157 2 -1.1169 2.74201 20.5921 4.51858 0 0 0 15.999 O 0.00387753 -0.000742076 0.0102609
160 2 -0.996366 0.952862 18.8591 4.50122 0 0 0 15.999 O 0.00760127 0.014633 0.0148888
151 3 2.13045 1.85863 19.7027 5.35139 0 0 0 28.086 Si 0.00534201 -0.00136587 -0.00706296
156 2 -1.05406 4.43691 20.5318 2.73891 0 0 0 15.999 O 0.00287422 -0.0100751 -0.0018077
168 2 -0.994045 4.48926 18.7799 0.882901 0 0 0 15.999 O 0.00636473 -0.00371703 -0.0012203
152 3 2.08432 5.33728 19.6945 1.82524 0 0 0 28.086 Si -0.00508256 0.00615392 0.00850128
158 2 -0.976265 6.22556 18.8203 2.65234 0 0 0 15.999 O -0.00491177 0.00230725 -0.0010953
161 2 -0.986306 6.18096 20.5854 1.0035 0 0 0 15.999 O -0.0162356 0.0113358 0.0145338
170 3 1.86336 7.19047 17.9149 3.60617 0 0 0 28.086 Si 0.00596357 -0.00408117 0.0166383
184 2 -0.991173 8.12997 18.8359 4.48768 0 0 0 15.999 O 0.00916494 0.00490841 0.00548638
181 2 -1.03944 9.89587 20.5928 4.45972 0 0 0 15.999 O 0.0106285 -0.000360587 -0.00201782
171 3 2.0335 10.719 17.8633 0.0421821 0 0 0 28.086 Si 0.00109712 0.000179261 0.00659939
176 3 2.07404 12.5019 19.7012 1.79122 0 0 0 28.086 Si -0.00436845 0.00720824 0.0011663
180 2 -1.04136 11.6094 20.5877 2.7146 0 0 0 15.999 O 0.000115763 -0.00443878 0.00764911
192 2 -1.01815 11.6583 18.7882 0.938413 0 0 0 15.999 O 0.00165152 0.00191382 0.00612049
175 3 2.01838 9.00236 19.686 5.36693 0 0 0 28.086 Si -0.00338658 0.00693109 0.000499313
49 3 2.06911 14.3306 21.4743 0.020745 0 -1 0 28.086 Si -0.000987054 0.00569831 -0.00535746
182 2 -0.984856 13.3004 18.8024 2.66403 0 0 0 15.999 O -0.0179307 -0.00339291 -0.00165053
185 2 -1.03354 13.4448 20.5736 0.892551 0 0 0 15.999 O 0.00528297 -0.00506161 -0.00272228
194 3 1.90102 14.2894 17.9313 3.58022 0 0 0 28.086 Si -0.00482165 -0.009725 0.00263231
208 2 -0.960295 15.1827 18.8091 4.42404 0 0 0 15.999 O -0.00383283 0.000571199 -0.00579201
205 2 -0.972564 17.0863 20.6495 4.49596 0 0 0 15.999 O 0.0129527 0.00608076 0.00707675
52 3 2.11669 17.9083 21.4677 3.56564 0 -1 0 28.086 Si 0.00081256 -0.00212753 -0.00255881
200 3 2.03135 19.7136 19.6765 1.76896 0 0 0 28.086 Si 0.00806651 -0.00368513 -0.00109242
204 2 -1.01066 18.754 20.6418 2.68526 0 0 0 15.999 O -0.00146815 0.00440077 8.10922e-05
206 2 -0.979719 20.5862 18.8198 2.66994 0 0 0 15.999 O 0.0011133 0.00485709 -0.00799496
209 2 -0.953934 20.5638 20.6113 0.961218 0 0 0 15.999 O -0.00608892 0.000591113 0.0113569
216 2 -1.0114 18.9058 18.8273 0.856383 0 0 0 15.999 O 0.0130396 0.00338106 -0.00511913
219 3 1.97868 3.57852 3.57691 7.13561 0 0 0 28.086 Si 0.00835302 -0.00477329 -0.00838191
222 3 2.02764 1.78447 1.79997 8.95196 0 0 0 28.086 Si 0.00281134 -0.00345391 0.00141628
225 2 -1.01633 0.881185 0.937431 8.10995 0 0 0 15.999 O -0.0102725 0.0157385 0.00425352
234 2 -0.992028 2.67425 0.973847 9.83134 0 0 0 15.999 O -0.00106944 0.0126001 -0.00222214
235 2 -0.984733 2.64974 2.5949 8.00679 0 0 0 15.999 O -0.00412146 -0.0123313 0.00100137
239 2 -1.01493 0.891121 2.78614 9.91231 0 0 0 15.999 O 0.00246584 0.0116068 0.00793897
15 2 -0.979722 4.50463 2.72096 6.2282 0 0 0 15.999 O 0.00249913 0.00425377 -0.00129837
249 2 -0.950492 8.02265 0.895326 8.12116 0 0 0 15.999 O -0.00446147 -0.00408686 0.0120265
263 2 -0.927645 8.02787 2.76344 9.9303 0 0 0 15.999 O -0.0046442 0.00976015 0.0101266
20 2 -1.00546 6.23667 0.867544 6.19601 0 0 0 15.999 O -0.00294303 -0.0069758 -0.00989396
246 3 1.88611 8.94665 1.79051 8.94364 0 0 0 28.086 Si -0.00658995 -0.0059168 -0.00244993
258 2 -0.967944 9.92334 0.917095 9.8535 0 0 0 15.999 O 0.0173981 0.00154446 0.00128818
259 2 -0.970422 9.83936 2.67064 8.09744 0 0 0 15.999 O -0.000712029 -0.00154693 0.00401122
243 3 1.90002 10.7429 3.56504 7.16538 0 0 0 28.086 Si -0.00175289 -0.00204145 0.00129367
39 2 -0.965618 11.6475 2.69888 6.32132 0 0 0 15.999 O 0.00771555 0.00558062 0.00848966
273 2 -0.975891 15.1671 0.904129 8.03593 0 0 0 15.999 O -0.00345401 -0.000478767 0.0010153
287 2 -0.973103 15.1483 2.75147 9.84715 0 0 0 15.999 O -0.0103656 0.00929929 0.00624915
44 2 -1.00417 13.4186 0.940008 6.25944 0 0 0 15.999 O -0.00156721 0.00646968 -0.000873469
270 3 1.81377 16.0742 1.76875 8.96873 0 0 0 28.086 Si -0.0120888 -0.00848111 -0.00184479
282 2 -1.01902 16.978 0.810335 9.9277 0 0 0 15.999 O -0.0114303 -0.0120766 0.0166894
283 2 -0.963856 17.0043 2.74905 8.06196 0 0 0 15.999 O -0.00445128 0.0154393 0.00816411
218 3 2.04136 21.4437 3.59114 10.7374 -1 0 0 28.086 Si -0.00526407 -0.00319374 -0.00374351
267 3 1.92255 17.8596 3.59051 7.18971 0 0 0 28.086 Si 0.0007579 -0.00217548 -0.00733572
63 2 -0.972876 18.7727 2.60674 6.19417 0 0 0 15.999 O -0.00202058 -0.00537534 -0.00921834
68 2 -0.920889 20.7157 0.782953 6.27803 0 0 0 15.999 O 0.0234425 -0.0169888 -0.00444805
11 2 -0.983802 2.70901 4.47684 6.31027 0 0 0 15.999 O 0.00167482 0.00211706 0.00493835
297 2 -0.990751 0.848259 7.95389 8.01776 0 0 0 15.999 O -0.00554318 -0.00862297 -0.00621283
306 2 -1.07102 2.75203 8.00632 9.81846 0 0 0 15.999 O 0.0159119 -0.00322604 -0.0100984
22 2 -1.00326 0.873746 6.37038 6.20824 0 0 0 15.999 O -0.00268449 0.00693491 -0.00490795
240 2 -0.976288 4.48255 4.38035 8.07005 0 0 0 15.999 O 0.00251614 -0.00914862 -0.000611288
230 2 -0.973383 6.23849 4.53538 9.84145 0 0 0 15.999 O 8.28944e-05 0.00697828 -0.00109815
228 2 -0.996437 4.43474 6.34121 9.89483 0 0 0 15.999 O -0.00680562 0.0131678 0.00778646
224 3 1.9321 5.36895 5.35542 8.94324 0 0 0 28.086 Si -0.00906446 -0.0070721 0.0038498
233 2 -0.980569 6.22093 6.23284 8.00682 0 0 0 15.999 O -0.00491912 -0.00583257 -0.00767432
313 3 1.87061 7.13253 7.15436 7.20777 0 0 0 28.086 Si 0.00332589 0.0051283 0.00234326
321 2 -0.964928 8.05216 8.05741 8.11754 0 0 0 15.999 O 0.0017886 0.00108013 0.00166861
92 2 -0.956376 6.19445 8.13368 6.29638 0 0 0 15.999 O -0.0126556 0.00702102 0.00861825
46 2 -0.967098 8.10374 6.23716 6.31942 0 0 0 15.999 O 0.0036947 -0.00797251 0.0104728
35 2 -0.976972 9.78155 4.47829 6.26305 0 0 0 15.999 O -0.00440226 0.00330584 0.00257795
264 2 -0.971965 11.6573 4.5438 8.03095 0 0 0 15.999 O 0.00104804 0.00657018 -0.00408108
330 2 -1.00948 9.83276 7.98289 9.89973 0 0 0 15.999 O -0.00589405 -0.00885201 0.0091441
31 3 1.92874 8.96324 5.41527 5.43127 0 0 0 28.086 Si 0.00659431 0.010958 0.00757434
248 3 2.01134 12.5453 5.36969 8.96268 0 0 0 28.086 Si -0.00715647 0.00207433 -0.00697897
252 2 -0.975672 11.7081 6.2466 9.82695 0 0 0 15.999 O 0.0118066 -0.00232188 -0.00279924
254 2 -1.04403 13.4214 4.49649 9.91308 0 0 0 15.999 O 0.000232368 0.00283437 0.00626103
59 2 -0.960792 16.9634 4.54628 6.21621 0 0 0 15.999 O -0.0016939 0.00691365 -0.00719995
257 2 -1.03378 13.4727 6.32841 8.0709 0 0 0 15.999 O 0.00411469 0.00967613 0.00345966
337 3 2.19861 14.3168 7.17268 7.16404 0 0 0 28.086 Si -0.00163506 -0.00416168 0.00750458
345 2 -1.04957 15.2065 8.09519 7.96968 0 0 0 15.999 O -0.000260194 0.00456414 -0.0118278
116 2 -1.04817 13.4375 7.97613 6.28888 0 0 0 15.999 O 0.00163637 -0.0110125 0.00309726
70 2 -0.998672 15.2258 6.31306 6.33844 0 0 0 15.999 O 0.00246402 0.00726517 0.00890773
354 2 -1.00089 16.9943 8.0178 9.7865 0 0 0 15.999 O -0.00012735 -0.00325376 -0.00758293
289 3 2.08712 21.4727 7.15372 7.101 -1 0 0 28.086 Si 0.0010256 0.00845129 -0.0038613
278 2 -0.993866 20.5681 4.44684 9.9327 0 0 0 15.999 O -0.00404936 -0.00136007 0.00709318
288 2 -0.981914 18.7651 4.49032 7.9498 0 0 0 15.999 O -0.00406429 0.001912 -0.00745357
272 3 1.9547 19.6768 5.4125 8.91048 0 0 0 28.086 Si -0.00428074 0.0106839 0.000726086
276 2 -0.945994 18.8934 6.28479 9.8143 0 0 0 15.999 O 0.00921384 0.00274925 -0.00168223
281 2 -1.01018 20.5175 6.23147 7.99696 0 0 0 15.999 O -0.00963144 -0.00538808 -0.0120842
140 2 -1.05411 20.5495 8.08114 6.27309 0 0 0 15.999 O -0.00544219 0.00353673 0.000964274
294 3 1.98303 1.80835 8.90794 8.96378 0 0 0 28.086 Si -0.00255067 -0.00273236 -0.00295022
307 2 -0.930887 2.62779 9.84941 8.11815 0 0 0 15.999 O -0.00916495 -0.00226873 0.00953422
311 2 -0.959454 0.982513 9.81357 9.81816 0 0 0 15.999 O 0.0091401 -0.00143135 -0.00439771
291 3 1.92277 3.58854 10.7699 7.14145 0 0 0 28.086 Si 0.00211956 0.00515749 -0.00742974
83 2 -0.940174 2.69724 11.6317 6.30923 0 0 0 15.999 O 0.00130215 -0.00283147 0.00659242
77 3 1.89647 5.37758 8.96058 5.38594 0 0 0 28.086 Si -0.00240663 -0.000361716 0.00105481
87 2 -0.980597 4.43224 9.84211 6.25616 0 0 0 15.999 O -0.00574694 -0.0024426 0.000485458
335 2 -0.990226 8.17065 9.84053 9.82541 0 0 0 15.999 O 0.0163748 0.0033324 -0.00218292
312 2 -0.96972 4.46703 11.702 8.04767 0 0 0 15.999 O -0.000490399 0.0053215 -0.000247681
296 3 1.89698 5.38845 12.5402 8.94085 0 0 0 28.086 Si -0.000732437 -0.0109559 0.0117188
302 2 -0.932384 6.31241 11.605 9.79011 0 0 0 15.999 O -0.00289437 0.00810026 -0.0141145
314 3 1.84012 7.19461 10.704 10.7114 0 0 0 28.086 Si 0.00632346 -0.00554084 0.0016071
103 3 1.99031 8.9191 12.5556 5.37295 0 0 0 28.086 Si 0.00199811 0.00320535 -0.00926895
101 3 1.90758 12.566 8.96929 5.40246 0 0 0 28.086 Si -0.00175873 0.00645665 0.0100017
318 3 2.00301 8.9817 8.94275 8.95931 0 0 0 28.086 Si 0.00308373 0.000401851 -0.0069208
331 2 -1.01429 9.89363 9.83439 8.03488 0 0 0 15.999 O 0.0071552 0.00012323 -0.00233835
111 2 -0.960987 11.6686 9.78822 6.30016 0 0 0 15.999 O 0.00496445 -0.00920148 0.00253661
107 2 -1.00216 9.89609 11.6878 6.3358 0 0 0 15.999 O 0.00613136 0.00926959 0.0086465
315 3 2.03614 10.7146 10.7747 7.18763 0 0 0 28.086 Si -0.00625914 0.00311657 0.00431516
320 3 1.84657 12.553 12.5766 8.95456 0 0 0 28.086 Si 0.00121428 0.0140763 -0.00647016
336 2 -0.968644 11.5822 11.6196 8.06979 0 0 0 15.999 O -0.00844388 -0.00987796 0.00426968
359 2 -0.939865 15.2983 9.83299 9.77346 0 0 0 15.999 O 0.0112688 -0.00480273 -0.0105163
342 3 1.98045 16.1217 8.9364 8.90169 0 0 0 28.086 Si -0.000634747 0.00725984 -0.00860409
355 2 -0.99784 17.0819 9.92311 8.04693 0 0 0 15.999 O 0.00640483 0.00892388 -0.00207239
326 2 -0.952276 13.4662 11.6859 9.89865 0 0 0 15.999 O 0.00691563 0.00629167 0.00666456
127 3 2.04907 16.1081 12.5512 5.37471 0 0 0 28.086 Si 0.00536873 0.00268981 0.0034299
131 2 -0.999327 16.9331 11.6432 6.22814 0 0 0 15.999 O -0.00945347 0.00403348 -0.0048152
338 3 1.89589 14.3075 10.7535 10.7332 0 0 0 28.086 Si -0.00886354 -0.00133492 0.00619118
125 3 2.15474 19.6811 8.9523 5.41352 0 0 0 28.086 Si 0.00396188 -0.00511952 -0.00877949
135 2 -1.09351 18.8304 9.82481 6.31133 0 0 0 15.999 O 0.00682311 -0.00299279 0.0058991
339 3 2.08974 17.9383 10.7189 7.13041 0 0 0 28.086 Si -0.000362275 -0.00332612 0.00496489
344 3 2.02097 19.7363 12.5554 8.9658 0 0 0 28.086 Si 0.0064895 -0.0033134 0.00227932
350 2 -0.963166 20.6335 11.6754 9.83995 0 0 0 15.999 O 0.0115253 0.0099123 0.000979562
360 2 -0.970188 18.809 11.6131 7.9403 0 0 0 15.999 O 0.00118195 -0.0011088 -0.0163423
369 2 -0.968554 0.951467 15.2135 8.03328 0 0 0 15.999 O 0.00411633 2.38032e-05 -0.00266505
378 2 -0.983529 2.72338 15.1923 9.92377 0 0 0 15.999 O 0.00624121 -0.00362439 0.00641907
94 2 -0.936195 0.805305 13.4732 6.25481 0 0 0 15.999 O -0.0136526 0.00384316 0.00127056
366 3 1.87162 1.81028 16.1026 8.93053 0 0 0 28.086 Si 0.0038624 0.00278838 -0.00227738
379 2 -0.96283 2.7001 16.9618 8.04876 0 0 0 15.999 O -0.000610856 -0.00179275 0.000487588
383 2 -0.953735 0.876076 17.0607 9.92181 0 0 0 15.999 O 0.00155496 0.0010372 0.0149124
149 3 2.0625 5.42192 16.096 5.37939 0 0 0 28.086 Si 0.00239108 0.00647752 -0.00505995
300 2 -0.968882 4.48994 13.4793 9.98511 0 0 0 15.999 O 0.00845621 0.0084141 0.0189021
305 2 -0.998518 6.23474 13.4853 8.06544 0 0 0 15.999 O -0.000772121 0.000968951 0.00412199
385 3 1.97329 7.14234 14.2873 7.14057 0 0 0 28.086 Si -0.0028904 0.000657174 0.00241094
393 2 -0.978333 8.11547 15.1961 8.10968 0 0 0 15.999 O 0.0115565 -0.00587857 0.0101379
164 2 -1.03044 6.32159 15.2195 6.21601 0 0 0 15.999 O 0.00791371 -0.000746475 -0.0114938
118 2 -1.02382 7.98381 13.381 6.24771 0 0 0 15.999 O -0.00564009 -0.00227475 -0.00233229
159 2 -0.958703 4.54417 16.9612 6.27744 0 0 0 15.999 O 0.0105997 -0.00922304 -0.001371
407 2 -1.04175 8.08735 17.0638 9.85296 0 0 0 15.999 O 0.000754199 0.00695855 0.00423979
402 2 -1.01116 9.7783 15.1614 9.84938 0 0 0 15.999 O -0.00677049 -0.00684885 -8.7003e-05
324 2 -0.943026 11.6468 13.5153 9.86342 0 0 0 15.999 O 0.00656275 0.0111319 0.0085349
390 3 2.06892 8.9649 16.0995 8.9443 0 0 0 28.086 Si -0.000157724 -0.000855185 -0.00377105
403 2 -1.04069 9.86446 16.9499 8.08172 0 0 0 15.999 O -0.000278189 -0.0040692 -0.00220006
183 2 -0.972427 11.5888 16.9865 6.36285 0 0 0 15.999 O -0.00412307 0.00124488 0.00918618
329 2 -0.981972 13.4893 13.4649 8.05989 0 0 0 15.999 O 0.0121379 0.00374512 0.00718167
409 3 2.03617 14.3597 14.3124 7.13952 0 0 0 28.086 Si -0.00300627 -0.00210589 -0.000631667
417 2 -1.0309 15.2355 15.2228 8.05697 0 0 0 15.999 O 0.00332868 0.00215536 0.00440611
188 2 -0.983068 13.4418 15.1801 6.17743 0 0 0 15.999 O -0.00121402 -0.00265965 -0.0153751
142 2 -1.04785 15.1836 13.4449 6.23758 0 0 0 15.999 O -0.00223495 0.00040783 -0.00258005
426 2 -0.94483 17.0775 15.1793 9.82218 0 0 0 15.999 O 0.00534784 -0.00306396 -0.00188855
431 2 -0.956596 15.1971 16.9602 9.79101 0 0 0 15.999 O 0.000252546 -0.0118741 -0.00868975
414 3 2.00429 16.0817 16.1317 8.88502 0 0 0 28.086 Si -0.00538897 0.0107427 -0.00682314
427 2 -0.962514 16.9656 16.9839 8.03187 0 0 0 15.999 O -0.00536557 -0.00138032 0.000178704
412 3 1.96365 17.9087 14.3271 10.7284 0 0 0 28.086 Si 0.00197987 0.00900614 -0.00463921
361 3 1.94301 21.4781 14.3544 7.12668 -1 0 0 28.086 Si -0.00184805 0.000912659 -0.0040971
348 2 -1.00174 18.8094 13.3609 9.80001 0 0 0 15.999 O 0.000573046 -0.00476456 -0.00349146
353 2 -0.982837 20.6075 13.4012 8.12798 0 0 0 15.999 O 0.00303122 -0.00439407 0.00512752
212 2 -1.02917 20.5806 15.2186 6.16666 0 0 0 15.999 O -0.00136289 0.000747565 -0.0132798
207 2 -1.0135 18.8844 16.9875 6.2355 0 0 0 15.999 O 0.00874411 -0.00412868 -0.000450678
217 3 1.97232 0.0539538 21.4425 7.17965 0 -1 0 28.086 Si 0.0019678 -0.0031387 0.00880059
363 3 1.9168 3.57254 17.9369 7.15831 0 0 0 28.086 Si -0.00295352 0.00307194 0.00200021
155 2 -1.04239 2.66827 18.7794 6.29662 0 0 0 15.999 O -0.00198913 -0.0040853 0.00506076
166 2 -0.994785 0.938131 20.5736 6.20296 0 0 0 15.999 O 0.00559901 -0.00707015 -0.0135077
241 3 1.90273 7.13275 21.4755 7.14507 0 -1 0 28.086 Si -0.00222329 0.00446922 -0.00335924
386 3 2.08647 7.17423 17.8631 10.7122 0 0 0 28.086 Si 0.00260254 0.000301395 -0.00169613
372 2 -0.933364 4.44354 20.6815 9.88655 0 0 0 15.999 O -0.00519484 0.0112786 0.00529994
384 2 -0.969335 4.51352 18.852 8.00711 0 0 0 15.999 O 0.00101138 0.00409827 0.000254934
368 3 1.83246 5.3718 19.7062 8.93682 0 0 0 28.086 Si 0.00127667 0.00295508 -0.00123082
374 2 -0.986424 6.27312 18.7034 9.88771 0 0 0 15.999 O 0.00415397 -0.00592989 0.0032942
377 2 -0.963101 6.25661 20.6599 8.07212 0 0 0 15.999 O -0.0012093 0.00954179 0.0031145
190 2 -0.972937 8.12836 20.5841 6.26734 0 0 0 15.999 O 0.0163217 -0.00793295 -0.0078424
179 2 -1.05901 9.8318 18.7033 6.27141 0 0 0 15.999 O -0.00369287 -0.0133541 0.00131025
387 3 2.15774 10.731 17.9027 7.16 0 0 0 28.086 Si -0.00487377 -0.00791067 -0.00170914
392 3 2.01154 12.4894 19.689 8.91716 0 0 0 28.086 Si 0.000257412 0.00652248 0.0126838
396 2 -1.0015 11.6015 20.5288 9.81193 0 0 0 15.999 O -0.0201275 -0.0138528 -0.010156
408 2 -1.05961 11.618 18.7625 7.96706 0 0 0 15.999 O 0.00339339 -0.00279125 -0.0079016
265 3 2.03793 14.2719 21.4652 7.18584 0 -1 0 28.086 Si 0.00208833 -0.00113942 0.00195021
203 2 -0.934294 17.0848 18.7946 6.2581 0 0 0 15.999 O 0.0166843 -0.000848801 -0.00494205
199 3 1.77412 16.0701 19.6945 5.38455 0 0 0 28.086 Si -0.0118539 0.000329358 0.00629567
398 2 -0.962195 13.3991 18.8119 9.80773 0 0 0 15.999 O -0.000669285 -0.00187259 -0.0109131
401 2 -1.03504 13.3841 20.5923 8.03661 0 0 0 15.999 O -0.00440021 -0.00354414 -0.00227179
214 2 -0.968525 15.1016 20.5438 6.3435 0 0 0 15.999 O -0.0108621 -7.79155e-05 0.00858448
410 3 1.84735 14.2969 17.9096 10.7392 0 0 0 28.086 Si -0.00105659 0.0068049 -0.00316194
420 2 -1.06082 18.7612 20.6008 9.8873 0 0 0 15.999 O -0.00583927 0.00277537 0.0075647
432 2 -1.00903 18.799 18.8593 8.12495 0 0 0 15.999 O 0.00205922 0.00653973 0.00639073
416 3 2.01683 19.6695 19.7084 8.97385 0 0 0 28.086 Si 0.00429147 0.00663063 0.0019447
411 3 1.87074 17.9469 17.956 7.14951 0 0 0 28.086 Si 0.00262512 0.00576482 -0.00179368
422 2 -0.997072 20.5585 18.752 9.87682 0 0 0 15.999 O -0.0110433 -0.0107126 0.00919124
425 2 -0.998345 20.6168 20.5289 8.06761 0 0 0 15.999 O 0.00366852 -0.00342336 0.000878174
435 3 2.38903 3.59169 3.638 14.3298 0 0 0 28.086 Si -0.00383294 0.000819631 -0.00765643
441 2 -0.971215 0.941222 0.925968 15.1642 0 0 0 15.999 O 0.00614478 0.00431951 -0.0105312
451 2 -1.14011 2.72449 2.79023 15.2151 0 0 0 15.999 O 0.00446669 0.00877072 -0.00274657
438 3 1.97923 1.85883 1.87316 16.0381 0 0 0 28.086 Si 0.0014434 0.00143155 -0.00104969
220 3 1.95479 3.55942 0.0206382 10.7719 0 0 0 28.086 Si -0.00417554 -0.00832703 0.00126465
231 2 -1.1412 4.42458 2.78621 13.4646 0 0 0 15.999 O 0.00147252 0.0115163 0.000660133
237 2 -0.99093 4.45691 0.896791 11.7478 0 0 0 15.999 O -0.00620322 0.00427609 0.00800977
465 2 -0.982907 8.05695 0.923581 15.1807 0 0 0 15.999 O 0.00122935 0.000442263 -0.0028574
221 3 2.05647 5.30893 1.82916 12.6059 0 0 0 28.086 Si -0.0175085 0.0127884 0.00756938
226 2 -0.993241 6.28743 2.70629 11.6584 0 0 0 15.999 O 0.0127688 -0.00718212 0.00819839
236 2 -1.01527 6.20664 0.975461 13.3935 0 0 0 15.999 O 0.00293094 0.00675017 -0.00558491
242 3 1.94726 7.12559 3.58391 10.7958 0 0 0 28.086 Si -0.00347993 0.00205989 0.00283108
457 3 1.98698 7.11688 0.0197851 14.3182 0 0 0 28.086 Si 0.00422833 -0.00601658 0.00691961