ITEM: TIMESTEP
0
ITEM: NUMBER OF ATOMS
3000
ITEM: BOX BOUNDS pp pp pp
0.0000000000000000e+00 3.5799999999999997e+01
0.0000000000000000e+00 3.5799999999999997e+01
0.0000000000000000e+00 3.5799999999999997e+01
ITEM: ATOMS id type q x y z ix iy iz mass element vx vy vz
1 3 1.13023 0 0 0 0 0 0 28.0855 Si 0.026907 0.0205563 -0.00519104
3 3 1.13023 3.58 3.58 0 0 0 0 28.0855 Si 0.0111368 -0.00100206 0.0342918
6 3 1.13023 1.79 1.79 1.79 0 0 0 28.0855 Si -0.00390235 -0.00919897 -0.00829955
9 2 -0.565113 0.895 0.895 0.895 0 0 0 15.9991 O 0.00121789 0.00142402 0.0106718
18 2 -0.565113 2.685 0.895 2.685 0 0 0 15.9991 O 0.00730191 -0.0177084 0.0315702
19 2 -0.565113 2.685 2.685 0.895 0 0 0 15.9991 O 0.0132125 0.0137892 0.00879952
23 2 -0.565113 0.895 2.685 2.685 0 0 0 15.9991 O -0.0192672 -0.0121691 0.00251171
2 3 1.13023 0 3.58 3.58 0 0 0 28.0855 Si 0.0141515 -0.0329821 -0.00346866
4 3 1.13023 3.58 0 3.58 0 0 0 28.0855 Si -0.00479413 -0.0128857 -0.0145555
25 3 1.13023 7.16 0 0 0 0 0 28.0855 Si 0.015845 -0.0133453 0.0102033
33 2 -0.565113 8.055 0.895 0.895 0 0 0 15.9991 O -0.00648538 0.00320459 0.00253259
47 2 -0.565113 8.055 2.685 2.685 0 0 0 15.9991 O -0.0109084 0.0197453 0.00278019
26 3 1.13023 7.16 3.58 3.58 0 0 0 28.0855 Si -0.00288202 -0.0177162 -0.0140602
30 3 1.13023 8.95 1.79 1.79 0 0 0 28.0855 Si -0.0140111 -0.00562775 -0.0119447
42 2 -0.565113 9.845 0.895 2.685 0 0 0 15.9991 O -0.00189077 -0.00195473 0.0116115
43 2 -0.565113 9.845 2.685 0.895 0 0 0 15.9991 O -0.00999907 -0.0213052 -0.00266807
27 3 1.13023 10.74 3.58 0 0 0 0 28.0855 Si 0.00777735 -0.011708 0.0210686
28 3 1.13023 10.74 0 3.58 0 0 0 28.0855 Si -0.0255511 -0.00905977 -0.0209495
49 3 1.13023 14.32 0 0 0 0 0 28.0855 Si -0.00343793 0.0148204 -0.0139782
57 2 -0.565113 15.215 0.895 0.895 0 0 0 15.9991 O 0.00667996 -0.0124039 -0.00678129
71 2 -0.565113 15.215 2.685 2.685 0 0 0 15.9991 O -0.0216225 0.0112368 0.00572908
50 3 1.13023 14.32 3.58 3.58 0 0 0 28.0855 Si -0.0143207 0.0163793 -0.00395701
54 3 1.13023 16.11 1.79 1.79 0 0 0 28.0855 Si 0.00267272 -0.00332914 0.0157457
66 2 -0.565113 17.005 0.895 2.685 0 0 0 15.9991 O 0.0198173 -0.0243823 0.00282501
67 2 -0.565113 17.005 2.685 0.895 0 0 0 15.9991 O -0.00385037 0.0153018 0.0194583
51 3 1.13023 17.9 3.58 0 0 0 0 28.0855 Si -0.00236594 -0.0015923 0.00175948
52 3 1.13023 17.9 0 3.58 0 0 0 28.0855 Si 0.00146189 -0.00500261 -0.00700895
73 3 1.13023 21.48 0 0 0 0 0 28.0855 Si -0.00501544 -0.00496151 -0.00129539
74 3 1.13023 21.48 3.58 3.58 0 0 0 28.0855 Si 0.0128952 0.00323115 0.000788069
75 3 1.13023 25.06 3.58 0 0 0 0 28.0855 Si 0.0147351 0.0189888 -0.00598115
78 3 1.13023 23.27 1.79 1.79 0 0 0 28.0855 Si -0.0315281 0.00431795 0.00862804
81 2 -0.565113 22.375 0.895 0.895 0 0 0 15.9991 O 0.020743 0.00366668 0.0215375
90 2 -0.565113 24.165 0.895 2.685 0 0 0 15.9991 O 0.0149912 -0.0180745 0.0223932
91 2 -0.565113 24.165 2.685 0.895 0 0 0 15.9991 O -0.0281356 -0.00146217 -0.00469168
95 2 -0.565113 22.375 2.685 2.685 0 0 0 15.9991 O -0.0125577 -0.0377103 0.0136935
76 3 1.13023 25.06 0 3.58 0 0 0 28.0855 Si 0.0165358 0.0173723 -0.00476113
97 3 1.13023 28.64 0 0 0 0 0 28.0855 Si 0.00212311 0.000778901 -0.0429794
102 3 1.13023 30.43 1.79 1.79 0 0 0 28.0855 Si -0.0201675 0.0155662 -0.00370683
105 2 -0.565113 29.535 0.895 0.895 0 0 0 15.9991 O -0.0235018 -0.0188025 0.0152023
119 2 -0.565113 29.535 2.685 2.685 0 0 0 15.9991 O -0.0411764 0.00427921 0.00346888
98 3 1.13023 28.64 3.58 3.58 0 0 0 28.0855 Si -0.00406763 0.0238498 -0.000640724
99 3 1.13023 32.22 3.58 0 0 0 0 28.0855 Si -0.018478 -0.0222354 -0.0109208
114 2 -0.565113 31.325 0.895 2.685 0 0 0 15.9991 O 0.0157423 -0.00233349 -0.013412
115 2 -0.565113 31.325 2.685 0.895 0 0 0 15.9991 O -0.00764464 0.0125926 0.00971029
100 3 1.13023 32.22 0 3.58 0 0 0 28.0855 Si -0.00228825 0.00202119 0.00255434
121 3 1.13023 0 7.16 0 0 0 0 28.0855 Si -0.0155165 0.0185546 0.00764327
129 2 -0.565113 0.895 8.055 0.895 0 0 0 15.9991 O -0.00439166 -0.00393332 -0.0263282
138 2 -0.565113 2.685 8.055 2.685 0 0 0 15.9991 O -0.0177912 0.0130532 -0.0183553
124 3 1.13023 3.58 7.16 3.58 0 0 0 28.0855 Si -0.0309867 -0.000650715 -0.00578041
24 2 -0.565113 4.475 4.475 0.895 0 0 0 15.9991 O 0.024816 -0.016451 0.00539028
14 2 -0.565113 6.265 4.475 2.685 0 0 0 15.9991 O 0.0264815 0.00957035 0.00973865
12 2 -0.565113 4.475 6.265 2.685 0 0 0 15.9991 O -0.00364328 0.00655189 -0.0153638
8 3 1.13023 5.37 5.37 1.79 0 0 0 28.0855 Si 0.000159364 -0.00629279 -0.00420513
17 2 -0.565113 6.265 6.265 0.895 0 0 0 15.9991 O 0.00859522 0.00471888 0.00674148
145 3 1.13023 7.16 7.16 0 0 0 0 28.0855 Si -0.0137868 -0.00367011 -0.00115687
153 2 -0.565113 8.055 8.055 0.895 0 0 0 15.9991 O -0.00859693 -0.00128868 -0.0170422
48 2 -0.565113 11.635 4.475 0.895 0 0 0 15.9991 O 0.010721 0.0197396 -0.0214647
162 2 -0.565113 9.845 8.055 2.685 0 0 0 15.9991 O 0.00827182 0.0186414 -0.00418745
32 3 1.13023 12.53 5.37 1.79 0 0 0 28.0855 Si -0.00743433 -0.0226087 0.0116858
36 2 -0.565113 11.635 6.265 2.685 0 0 0 15.9991 O -0.012338 -0.0139341 0.00676591
148 3 1.13023 10.74 7.16 3.58 0 0 0 28.0855 Si 0.0061464 -0.00114237 -0.00467328
38 2 -0.565113 13.425 4.475 2.685 0 0 0 15.9991 O -0.0211815 -0.0335663 -0.0216334
41 2 -0.565113 13.425 6.265 0.895 0 0 0 15.9991 O -0.000268596 -0.0191739 0.00192275
169 3 1.13023 14.32 7.16 0 0 0 0 28.0855 Si -0.0114453 -0.00186361 0.0177498
177 2 -0.565113 15.215 8.055 0.895 0 0 0 15.9991 O -0.00758453 -0.0355051 -0.00218423
186 2 -0.565113 17.005 8.055 2.685 0 0 0 15.9991 O -0.00393178 0.0287191 -0.0326489
72 2 -0.565113 18.795 4.475 0.895 0 0 0 15.9991 O 0.00548163 -0.00472577 0.00288668
62 2 -0.565113 20.585 4.475 2.685 0 0 0 15.9991 O -0.0069449 -0.0187315 -0.0053209
56 3 1.13023 19.69 5.37 1.79 0 0 0 28.0855 Si -0.00301845 0.00755677 -0.0139229
60 2 -0.565113 18.795 6.265 2.685 0 0 0 15.9991 O -0.012454 0.0607977 -0.023787
172 3 1.13023 17.9 7.16 3.58 0 0 0 28.0855 Si -0.0271467 0.00440197 -0.0044649
65 2 -0.565113 20.585 6.265 0.895 0 0 0 15.9991 O 0.00731879 -0.0284096 0.000924632
193 3 1.13023 21.48 7.16 0 0 0 0 28.0855 Si -0.0053359 -0.00316746 -0.0144346
96 2 -0.565113 25.955 4.475 0.895 0 0 0 15.9991 O 0.0377877 -0.00314432 0.0112132
201 2 -0.565113 22.375 8.055 0.895 0 0 0 15.9991 O -0.00623423 -0.0084992 0.00169163
210 2 -0.565113 24.165 8.055 2.685 0 0 0 15.9991 O 0.0137731 0.00189061 0.000822976
196 3 1.13023 25.06 7.16 3.58 0 0 0 28.0855 Si 0.00179038 -0.00797442 -0.0208046
84 2 -0.565113 25.955 6.265 2.685 0 0 0 15.9991 O -0.00606344 -0.0463208 -0.0253892
86 2 -0.565113 27.745 4.475 2.685 0 0 0 15.9991 O -0.000866134 0.0153723 -0.0185392
80 3 1.13023 26.85 5.37 1.79 0 0 0 28.0855 Si 0.00764486 -0.0110658 -0.0283605
89 2 -0.565113 27.745 6.265 0.895 0 0 0 15.9991 O -0.00119073 -0.0345392 -0.0195168
217 3 1.13023 28.64 7.16 0 0 0 0 28.0855 Si 0.0048233 -0.00885675 0.0235144
225 2 -0.565113 29.535 8.055 0.895 0 0 0 15.9991 O -0.0267589 0.0399674 0.0116616
110 2 -0.565113 34.905 4.475 2.685 0 0 0 15.9991 O -0.0132649 -0.00180778 -0.0154328
120 2 -0.565113 33.115 4.475 0.895 0 0 0 15.9991 O -0.0476686 -0.0142267 -0.0172224
104 3 1.13023 34.01 5.37 1.79 0 0 0 28.0855 Si 0.0180759 0.00559365 -0.0149355
108 2 -0.565113 33.115 6.265 2.685 0 0 0 15.9991 O -0.0273411 -0.00504215 -0.00220295
113 2 -0.565113 34.905 6.265 0.895 0 0 0 15.9991 O -0.0212688 -0.0307399 -0.0195047
234 2 -0.565113 31.325 8.055 2.685 0 0 0 15.9991 O -0.00288047 0.032053 -0.0051855
220 3 1.13023 32.22 7.16 3.58 0 0 0 28.0855 Si -0.010783 -0.0218734 0.00380616
126 3 1.13023 1.79 8.95 1.79 0 0 0 28.0855 Si -0.013543 0.00257092 -0.0141197
139 2 -0.565113 2.685 9.845 0.895 0 0 0 15.9991 O 0.00943933 -0.000480393 -0.0105586
143 2 -0.565113 0.895 9.845 2.685 0 0 0 15.9991 O 0.0055597 -0.0122276 0.00104799
123 3 1.13023 3.58 10.74 0 0 0 0 28.0855 Si -0.0203974 0.00204972 0.011304
122 3 1.13023 0 10.74 3.58 0 0 0 28.0855 Si 0.00802652 0.00328034 0.00447457
167 2 -0.565113 8.055 9.845 2.685 0 0 0 15.9991 O 0.0105624 -0.0172424 -0.00939945
144 2 -0.565113 4.475 11.635 0.895 0 0 0 15.9991 O -0.00536591 0.00075243 -0.0197375
128 3 1.13023 5.37 12.53 1.79 0 0 0 28.0855 Si -0.000913422 0.000290732 0.0214566
134 2 -0.565113 6.265 11.635 2.685 0 0 0 15.9991 O -0.00747689 0.0222056 -0.0357304
146 3 1.13023 7.16 10.74 3.58 0 0 0 28.0855 Si 0.0183891 0.00586774 -0.0176366
150 3 1.13023 8.95 8.95 1.79 0 0 0 28.0855 Si 0.00718166 0.00477045 -0.00700674
163 2 -0.565113 9.845 9.845 0.895 0 0 0 15.9991 O -0.00501331 -0.0163566 -0.0056786
147 3 1.13023 10.74 10.74 0 0 0 0 28.0855 Si -0.0269843 -0.00465369 -0.00732259
152 3 1.13023 12.53 12.53 1.79 0 0 0 28.0855 Si -0.0150017 0.0155137 0.0213311
168 2 -0.565113 11.635 11.635 0.895 0 0 0 15.9991 O 0.0145285 -0.0100631 -0.00365298
191 2 -0.565113 15.215 9.845 2.685 0 0 0 15.9991 O 0.00907254 -0.000380162 -0.0170153
174 3 1.13023 16.11 8.95 1.79 0 0 0 28.0855 Si -0.00915829 -0.00740617 -0.00162735
187 2 -0.565113 17.005 9.845 0.895 0 0 0 15.9991 O 0.00835808 -0.0133262 0.00373629
158 2 -0.565113 13.425 11.635 2.685 0 0 0 15.9991 O -0.014458 0.00567461 -0.00345677
170 3 1.13023 14.32 10.74 3.58 0 0 0 28.0855 Si 0.0137305 -0.0107138 0.0423055
171 3 1.13023 17.9 10.74 0 0 0 0 28.0855 Si 0.000916207 0.000258534 0.0161399
176 3 1.13023 19.69 12.53 1.79 0 0 0 28.0855 Si -0.013161 0.0185922 0.00188283
192 2 -0.565113 18.795 11.635 0.895 0 0 0 15.9991 O 0.00236464 0.00483483 0.0147841
182 2 -0.565113 20.585 11.635 2.685 0 0 0 15.9991 O -0.0480642 -0.00868729 -0.00539532
194 3 1.13023 21.48 10.74 3.58 0 0 0 28.0855 Si -0.0141148 -0.0249309 0.00563973
198 3 1.13023 23.27 8.95 1.79 0 0 0 28.0855 Si -0.015035 0.0206543 0.0128942
211 2 -0.565113 24.165 9.845 0.895 0 0 0 15.9991 O 0.00032195 0.0255622 -0.0130637
215 2 -0.565113 22.375 9.845 2.685 0 0 0 15.9991 O -0.00462454 -0.0129594 -0.0181681
195 3 1.13023 25.06 10.74 0 0 0 0 28.0855 Si -0.00138876 0.00980891 -0.0120352
216 2 -0.565113 25.955 11.635 0.895 0 0 0 15.9991 O 0.0317546 0.0089824 -0.0147513
222 3 1.13023 30.43 8.95 1.79 0 0 0 28.0855 Si 0.00703488 -0.00948469 0.00422386
239 2 -0.565113 29.535 9.845 2.685 0 0 0 15.9991 O 0.00616037 0.0294042 0.0210705
200 3 1.13023 26.85 12.53 1.79 0 0 0 28.0855 Si 0.0189404 -0.00916871 -0.00446248
206 2 -0.565113 27.745 11.635 2.685 0 0 0 15.9991 O 0.00109702 0.0129773 -0.0222952
218 3 1.13023 28.64 10.74 3.58 0 0 0 28.0855 Si -0.013774 -0.00880371 -0.00906748
235 2 -0.565113 31.325 9.845 0.895 0 0 0 15.9991 O -0.0109676 -0.0324122 0.00304553
219 3 1.13023 32.22 10.74 0 0 0 0 28.0855 Si 0.0211224 -0.0129035 -0.0212993
224 3 1.13023 34.01 12.53 1.79 0 0 0 28.0855 Si -0.0238009 -0.0186462 0.0100485
230 2 -0.565113 34.905 11.635 2.685 0 0 0 15.9991 O -8.28849e-05 0.017719 -0.0027404
240 2 -0.565113 33.115 11.635 0.895 0 0 0 15.9991 O 0.00608247 -0.0241001 -0.00134956
241 3 1.13023 0 14.32 0 0 0 0 28.0855 Si -0.00586669 0.0118048 -0.00832821
249 2 -0.565113 0.895 15.215 0.895 0 0 0 15.9991 O -0.01162 -0.0101835 0.0312755
258 2 -0.565113 2.685 15.215 2.685 0 0 0 15.9991 O 0.044933 0.00454913 0.00341779
244 3 1.13023 3.58 14.32 3.58 0 0 0 28.0855 Si 0.00629308 0.0197672 0.00207816
246 3 1.13023 1.79 16.11 1.79 0 0 0 28.0855 Si -0.0171007 -0.0148141 -0.00621202
259 2 -0.565113 2.685 17.005 0.895 0 0 0 15.9991 O -0.00203098 -0.00353651 0.0103538
263 2 -0.565113 0.895 17.005 2.685 0 0 0 15.9991 O -0.0120573 0.0256653 0.0262651
132 2 -0.565113 4.475 13.425 2.685 0 0 0 15.9991 O 0.0159014 0.015937 -0.0163035
137 2 -0.565113 6.265 13.425 0.895 0 0 0 15.9991 O -0.00429939 -0.00821257 -0.00578432
265 3 1.13023 7.16 14.32 0 0 0 0 28.0855 Si 0.00526744 -0.00231507 0.00486822
273 2 -0.565113 8.055 15.215 0.895 0 0 0 15.9991 O -0.00902571 -0.000516558 0.00233875
287 2 -0.565113 8.055 17.005 2.685 0 0 0 15.9991 O -0.0268321 0.0248266 0.0157469
282 2 -0.565113 9.845 15.215 2.685 0 0 0 15.9991 O -0.029475 -0.0302587 0.0426769
156 2 -0.565113 11.635 13.425 2.685 0 0 0 15.9991 O 0.0055634 -0.0263752 -0.00526494
268 3 1.13023 10.74 14.32 3.58 0 0 0 28.0855 Si 0.0211915 0.0133749 -0.0121003
270 3 1.13023 8.95 16.11 1.79 0 0 0 28.0855 Si -0.031293 -0.0210766 -0.0051585
283 2 -0.565113 9.845 17.005 0.895 0 0 0 15.9991 O -0.0116917 0.0406701 0.0205579
161 2 -0.565113 13.425 13.425 0.895 0 0 0 15.9991 O -0.0438964 0.0288852 0.0367929
289 3 1.13023 14.32 14.32 0 0 0 0 28.0855 Si 0.00202509 0.021323 -0.00954489
297 2 -0.565113 15.215 15.215 0.895 0 0 0 15.9991 O -0.014905 -0.0226606 -0.015722
306 2 -0.565113 17.005 15.215 2.685 0 0 0 15.9991 O 0.0406065 -0.00852921 -0.0258915
311 2 -0.565113 15.215 17.005 2.685 0 0 0 15.9991 O 0.0230343 -0.0039844 -0.0111507
294 3 1.13023 16.11 16.11 1.79 0 0 0 28.0855 Si -0.00716122 -0.00735145 -0.00742204
307 2 -0.565113 17.005 17.005 0.895 0 0 0 15.9991 O -0.0243444 -0.00616289 0.0246947
180 2 -0.565113 18.795 13.425 2.685 0 0 0 15.9991 O -0.00156308 -0.0114672 0.0186318
292 3 1.13023 17.9 14.32 3.58 0 0 0 28.0855 Si 0.00845023 -0.00154322 0.0099501
185 2 -0.565113 20.585 13.425 0.895 0 0 0 15.9991 O 0.0116468 -0.0130854 -0.00827232
313 3 1.13023 21.48 14.32 0 0 0 0 28.0855 Si 0.00797073 0.0131072 0.00596165
321 2 -0.565113 22.375 15.215 0.895 0 0 0 15.9991 O 0.0040218 0.00275459 0.00410318
330 2 -0.565113 24.165 15.215 2.685 0 0 0 15.9991 O -0.0156783 -0.0226954 0.0232778
316 3 1.13023 25.06 14.32 3.58 0 0 0 28.0855 Si -0.00315879 -0.0134617 0.0145217
204 2 -0.565113 25.955 13.425 2.685 0 0 0 15.9991 O -0.00565771 0.0117077 -0.00141893
318 3 1.13023 23.27 16.11 1.79 0 0 0 28.0855 Si 0.00738147 0.00109857 -0.0181871
331 2 -0.565113 24.165 17.005 0.895 0 0 0 15.9991 O 0.0177813 0.000373016 -0.00647297
335 2 -0.565113 22.375 17.005 2.685 0 0 0 15.9991 O 0.0417092 0.00867384 -0.00594866
209 2 -0.565113 27.745 13.425 0.895 0 0 0 15.9991 O -0.0177076 0.00186628 0.0275619
337 3 1.13023 28.64 14.32 0 0 0 0 28.0855 Si -0.00484043 -0.0105176 0.018771
345 2 -0.565113 29.535 15.215 0.895 0 0 0 15.9991 O -0.00128002 0.0120985 -0.0312515
342 3 1.13023 30.43 16.11 1.79 0 0 0 28.0855 Si -0.00222146 0.0191565 -0.023043
359 2 -0.565113 29.535 17.005 2.685 0 0 0 15.9991 O 0.0285251 -0.0119738 -0.0279706
228 2 -0.565113 33.115 13.425 2.685 0 0 0 15.9991 O -0.0179526 0.0336095 0.0202221
233 2 -0.565113 34.905 13.425 0.895 0 0 0 15.9991 O -0.0132099 -0.0154572 -0.0198119
354 2 -0.565113 31.325 15.215 2.685 0 0 0 15.9991 O -0.000801876 -0.00789129 -0.0204171
340 3 1.13023 32.22 14.32 3.58 0 0 0 28.0855 Si -0.00873566 0.0105642 0.00679524
355 2 -0.565113 31.325 17.005 0.895 0 0 0 15.9991 O 0.0158389 0.0234528 -0.00630522
243 3 1.13023 3.58 17.9 0 0 0 0 28.0855 Si -0.00482936 -0.00482043 0.00322329
242 3 1.13023 0 17.9 3.58 0 0 0 28.0855 Si -0.00902952 0.00579085 0.00744981
361 3 1.13023 0 21.48 0 0 0 0 28.0855 Si -0.00575263 0.00213173 -0.010531
364 3 1.13023 3.58 21.48 3.58 0 0 0 28.0855 Si 0.00656094 -0.00694472 0.000630617
264 2 -0.565113 4.475 18.795 0.895 0 0 0 15.9991 O 0.00241274 0.0175057 -0.0107722
248 3 1.13023 5.37 19.69 1.79 0 0 0 28.0855 Si -0.0187409 0.00599668 -0.0183637
254 2 -0.565113 6.265 18.795 2.685 0 0 0 15.9991 O 0.000444743 0.00805574 0.0158023
266 3 1.13023 7.16 17.9 3.58 0 0 0 28.0855 Si 0.0174012 0.00667157 0.00563593
252 2 -0.565113 4.475 20.585 2.685 0 0 0 15.9991 O 0.0302308 -0.00534406 -0.00756319
257 2 -0.565113 6.265 20.585 0.895 0 0 0 15.9991 O 0.0102429 0.0256172 0.00846349
385 3 1.13023 7.16 21.48 0 0 0 0 28.0855 Si -0.00843791 0.00183013 0.00576233
267 3 1.13023 10.74 17.9 0 0 0 0 28.0855 Si 0.00165227 -0.00480981 -0.0195642
272 3 1.13023 12.53 19.69 1.79 0 0 0 28.0855 Si -0.0113237 0.0285762 0.0010147
288 2 -0.565113 11.635 18.795 0.895 0 0 0 15.9991 O -0.0107867 0.00583095 -0.0199838
276 2 -0.565113 11.635 20.585 2.685 0 0 0 15.9991 O 0.0235341 0.00810641 -0.00519552
388 3 1.13023 10.74 21.48 3.58 0 0 0 28.0855 Si -0.0124687 -0.0139883 -0.0238752
278 2 -0.565113 13.425 18.795 2.685 0 0 0 15.9991 O -0.0106038 -0.00241377 0.017442
290 3 1.13023 14.32 17.9 3.58 0 0 0 28.0855 Si 0.00571676 -0.0257546 -0.00780539
281 2 -0.565113 13.425 20.585 0.895 0 0 0 15.9991 O -0.0252412 -0.0129247 -0.0321618
409 3 1.13023 14.32 21.48 0 0 0 0 28.0855 Si -0.00873885 -0.00494062 -0.00260968
291 3 1.13023 17.9 17.9 0 0 0 0 28.0855 Si 0.00467034 0.0130023 -0.0192186
296 3 1.13023 19.69 19.69 1.79 0 0 0 28.0855 Si -0.00265171 -0.0284029 0.029985
312 2 -0.565113 18.795 18.795 0.895 0 0 0 15.9991 O -0.00204986 0.0135205 -0.000793351
302 2 -0.565113 20.585 18.795 2.685 0 0 0 15.9991 O -0.00812434 0.0208859 -0.0367173
314 3 1.13023 21.48 17.9 3.58 0 0 0 28.0855 Si 0.0157827 -0.0142328 0.00385601
300 2 -0.565113 18.795 20.585 2.685 0 0 0 15.9991 O 0.0210954 0.0216148 0.0485396
412 3 1.13023 17.9 21.48 3.58 0 0 0 28.0855 Si 0.00438868 0.0241255 -0.01321
305 2 -0.565113 20.585 20.585 0.895 0 0 0 15.9991 O -0.00286501 0.00237333 0.0102596
433 3 1.13023 21.48 21.48 0 0 0 0 28.0855 Si 0.0116866 -0.013241 0.0173333
315 3 1.13023 25.06 17.9 0 0 0 0 28.0855 Si -0.0169566 0.00809206 0.0105912
336 2 -0.565113 25.955 18.795 0.895 0 0 0 15.9991 O -0.0225746 -0.0253606 0.0103637
436 3 1.13023 25.06 21.48 3.58 0 0 0 28.0855 Si -0.0125383 -0.00554719 -0.00310857
324 2 -0.565113 25.955 20.585 2.685 0 0 0 15.9991 O 0.0161965 0.0289823 0.0212629
320 3 1.13023 26.85 19.69 1.79 0 0 0 28.0855 Si 0.00237225 0.0365777 -0.0174847
326 2 -0.565113 27.745 18.795 2.685 0 0 0 15.9991 O 0.0172022 0.0165807 0.0164079
338 3 1.13023 28.64 17.9 3.58 0 0 0 28.0855 Si -0.0234249 -0.00301889 0.0151785
329 2 -0.565113 27.745 20.585 0.895 0 0 0 15.9991 O 0.0304632 0.00990448 0.0176406
457 3 1.13023 28.64 21.48 0 0 0 0 28.0855 Si 0.0114187 -0.0154155 0.0181271
339 3 1.13023 32.22 17.9 0 0 0 0 28.0855 Si -0.00173385 -0.00818038 0.0117551
344 3 1.13023 34.01 19.69 1.79 0 0 0 28.0855 Si 0.0159926 -0.00795368 0.0045898
350 2 -0.565113 34.905 18.795 2.685 0 0 0 15.9991 O 0.0290986 0.026283 0.0012201
360 2 -0.565113 33.115 18.795 0.895 0 0 0 15.9991 O 0.00226597 -0.0023671 -0.0433625
348 2 -0.565113 33.115 20.585 2.685 0 0 0 15.9991 O 0.000740272 -0.0116994 -0.0102871
353 2 -0.565113 34.905 20.585 0.895 0 0 0 15.9991 O 0.00696345 -0.0107478 0.011832
460 3 1.13023 32.22 21.48 3.58 0 0 0 28.0855 Si -0.0159449 -0.0235043 0.00717405
363 3 1.13023 3.58 25.06 0 0 0 0 28.0855 Si -0.00878357 0.00788645 0.00475106
366 3 1.13023 1.79 23.27 1.79 0 0 0 28.0855 Si 0.00903136 0.00716707 -0.00606191
369 2 -0.565113 0.895 22.375 0.895 0 0 0 15.9991 O 0.00966698 -6.28197e-05 -0.00695078
378 2 -0.565113 2.685 22.375 2.685 0 0 0 15.9991 O 0.0152888 -0.00928562 0.0163742
379 2 -0.565113 2.685 24.165 0.895 0 0 0 15.9991 O -0.00262188 -0.00466469 0.000963577
383 2 -0.565113 0.895 24.165 2.685 0 0 0 15.9991 O 0.00309615 0.00265467 0.0383264
362 3 1.13023 0 25.06 3.58 0 0 0 28.0855 Si 0.00014614 0.0100944 -0.0292563
393 2 -0.565113 8.055 22.375 0.895 0 0 0 15.9991 O 0.0288803 -0.0149371 0.0255885
407 2 -0.565113 8.055 24.165 2.685 0 0 0 15.9991 O 0.001024 0.0182987 0.0102591
386 3 1.13023 7.16 25.06 3.58 0 0 0 28.0855 Si 0.00581889 0.00111597 -0.00504474
384 2 -0.565113 4.475 25.955 0.895 0 0 0 15.9991 O 0.00146656 0.0106319 0.00012666
374 2 -0.565113 6.265 25.955 2.685 0 0 0 15.9991 O 0.0097237 -0.0150622 0.00785463
390 3 1.13023 8.95 23.27 1.79 0 0 0 28.0855 Si -0.00134555 -0.00188024 -0.0104294
402 2 -0.565113 9.845 22.375 2.685 0 0 0 15.9991 O -0.0183039 -0.0172625 -0.000924312
403 2 -0.565113 9.845 24.165 0.895 0 0 0 15.9991 O -0.00176 -0.010181 -0.00648634
387 3 1.13023 10.74 25.06 0 0 0 0 28.0855 Si -0.0137383 -0.0201072 -0.00533488
408 2 -0.565113 11.635 25.955 0.895 0 0 0 15.9991 O 0.00761912 -0.00680107 -0.0214329
417 2 -0.565113 15.215 22.375 0.895 0 0 0 15.9991 O 0.00763467 0.00615516 0.0102812
431 2 -0.565113 15.215 24.165 2.685 0 0 0 15.9991 O -0.000268192 -0.0299662 -0.0236215
410 3 1.13023 14.32 25.06 3.58 0 0 0 28.0855 Si -0.0036286 0.0182622 -0.00934078
414 3 1.13023 16.11 23.27 1.79 0 0 0 28.0855 Si -0.0148565 0.0284122 -0.0188193
426 2 -0.565113 17.005 22.375 2.685 0 0 0 15.9991 O 0.0129764 -0.00712543 -0.00609771
427 2 -0.565113 17.005 24.165 0.895 0 0 0 15.9991 O -0.0148989 -0.0028881 -0.000855398
398 2 -0.565113 13.425 25.955 2.685 0 0 0 15.9991 O -0.00274055 -0.00423659 -0.0293372
411 3 1.13023 17.9 25.06 0 0 0 0 28.0855 Si 0.00561594 0.015558 -0.00607198
434 3 1.13023 21.48 25.06 3.58 0 0 0 28.0855 Si -0.00888555 0.0237463 0.00218221
432 2 -0.565113 18.795 25.955 0.895 0 0 0 15.9991 O 0.00417924 0.0176551 0.014944
422 2 -0.565113 20.585 25.955 2.685 0 0 0 15.9991 O -0.0295122 -0.0266951 0.0220534
435 3 1.13023 25.06 25.06 0 0 0 0 28.0855 Si -0.00957272 0.00205759 -0.0194538
438 3 1.13023 23.27 23.27 1.79 0 0 0 28.0855 Si 0.00425853 0.00364852 -0.00217433
441 2 -0.565113 22.375 22.375 0.895 0 0 0 15.9991 O 0.0163809 0.0110079 -0.0265319
450 2 -0.565113 24.165 22.375 2.685 0 0 0 15.9991 O 0.0181458 0.00414871 -0.0173796
451 2 -0.565113 24.165 24.165 0.895 0 0 0 15.9991 O 0.0119578 0.0225905 -0.0066686
455 2 -0.565113 22.375 24.165 2.685 0 0 0 15.9991 O 0.00235432 0.0113224 0.00309251
456 2 -0.565113 25.955 25.955 0.895 0 0 0 15.9991 O 0.0181341 0.011773 -0.0224328
462 3 1.13023 30.43 23.27 1.79 0 0 0 28.0855 Si -0.00465128 0.000565249 -0.0109883
465 2 -0.565113 29.535 22.375 0.895 0 0 0 15.9991 O 0.00369304 0.00135491 -0.00723076
479 2 -0.565113 29.535 24.165 2.685 0 0 0 15.9991 O 0.000267783 -0.00540582 0.0137922
458 3 1.13023 28.64 25.06 3.58 0 0 0 28.0855 Si 0.00448954 0.00726463 0.00494994
446 2 -0.565113 27.745 25.955 2.685 0 0 0 15.9991 O -0.0313288 -0.00953077 0.00109472
459 3 1.13023 32.22 25.06 0 0 0 0 28.0855 Si -0.0112316 0.00505338 0.00067523
474 2 -0.565113 31.325 22.375 2.685 0 0 0 15.9991 O -0.00999752 -0.0314315 0.0010487
475 2 -0.565113 31.325 24.165 0.895 0 0 0 15.9991 O 0.0195438 -0.0331772 0.0152965
470 2 -0.565113 34.905 25.955 2.685 0 0 0 15.9991 O 0.021372 -0.00906735 0.0462664
480 2 -0.565113 33.115 25.955 0.895 0 0 0 15.9991 O 0.0312029 -0.0183205 0.0105277
481 3 1.13023 0 28.64 0 0 0 0 28.0855 Si -0.0164952 -0.0084694 -0.0192852
486 3 1.13023 1.79 30.43 1.79 0 0 0 28.0855 Si 0.00224329 -0.00461004 0.0203152
489 2 -0.565113 0.895 29.535 0.895 0 0 0 15.9991 O -0.0284905 0.0269615 0.054045
498 2 -0.565113 2.685 29.535 2.685 0 0 0 15.9991 O 0.00411525 0.00163954 -0.00512689
484 3 1.13023 3.58 28.64 3.58 0 0 0 28.0855 Si -0.0150576 0.0130849 -0.000118556
372 2 -0.565113 4.475 27.745 2.685 0 0 0 15.9991 O -0.0145129 0.0292691 0.0130518
368 3 1.13023 5.37 26.85 1.79 0 0 0 28.0855 Si 0.00217589 0.00777564 -0.00381877
377 2 -0.565113 6.265 27.745 0.895 0 0 0 15.9991 O -0.00435241 0.0247742 0.00728163
505 3 1.13023 7.16 28.64 0 0 0 0 28.0855 Si 0.0181203 0.00424103 -0.000878624
513 2 -0.565113 8.055 29.535 0.895 0 0 0 15.9991 O 0.0183261 -0.00793307 -0.0145645
510 3 1.13023 8.95 30.43 1.79 0 0 0 28.0855 Si -0.00107883 0.0055107 0.0391037
522 2 -0.565113 9.845 29.535 2.685 0 0 0 15.9991 O -0.00472008 0.0129589 0.00803643
392 3 1.13023 12.53 26.85 1.79 0 0 0 28.0855 Si -0.00045555 0.0173393 0.0315941
396 2 -0.565113 11.635 27.745 2.685 0 0 0 15.9991 O -0.0530563 -0.0352534 -0.0273515
508 3 1.13023 10.74 28.64 3.58 0 0 0 28.0855 Si -0.0136581 0.00038582 0.000360973
401 2 -0.565113 13.425 27.745 0.895 0 0 0 15.9991 O -0.0125876 -0.00865299 -0.00712929
529 3 1.13023 14.32 28.64 0 0 0 0 28.0855 Si 0.00144072 -0.0154442 0.0172045
537 2 -0.565113 15.215 29.535 0.895 0 0 0 15.9991 O -0.0226559 0.00959272 -0.0289962
534 3 1.13023 16.11 30.43 1.79 0 0 0 28.0855 Si -0.00984338 -0.00619432 0.0273589
546 2 -0.565113 17.005 29.535 2.685 0 0 0 15.9991 O -0.00627155 -0.00544885 0.0215594
416 3 1.13023 19.69 26.85 1.79 0 0 0 28.0855 Si 0.0099611 0.0179812 0.00335619
420 2 -0.565113 18.795 27.745 2.685 0 0 0 15.9991 O -0.0161708 0.00803458 0.0178786
532 3 1.13023 17.9 28.64 3.58 0 0 0 28.0855 Si 0.0185377 -0.00616145 0.0207784
425 2 -0.565113 20.585 27.745 0.895 0 0 0 15.9991 O 0.00824838 -0.00797624 0.000488639
553 3 1.13023 21.48 28.64 0 0 0 0 28.0855 Si -0.0106715 0.0113554 0.00755213
558 3 1.13023 23.27 30.43 1.79 0 0 0 28.0855 Si 0.00916442 -0.0223015 0.0114692
561 2 -0.565113 22.375 29.535 0.895 0 0 0 15.9991 O -0.0283205 -0.0304213 -0.00248342
570 2 -0.565113 24.165 29.535 2.685 0 0 0 15.9991 O -0.00100785 0.00992456 -0.00958437
556 3 1.13023 25.06 28.64 3.58 0 0 0 28.0855 Si -0.0171842 0.00394731 0.00664013
444 2 -0.565113 25.955 27.745 2.685 0 0 0 15.9991 O 0.00148055 0.0159567 0.011606
440 3 1.13023 26.85 26.85 1.79 0 0 0 28.0855 Si -0.0210889 0.00850005 0.0160008
449 2 -0.565113 27.745 27.745 0.895 0 0 0 15.9991 O 0.0094812 0.00964731 0.00768914
577 3 1.13023 28.64 28.64 0 0 0 0 28.0855 Si 0.00771104 0.00649812 0.000878476
582 3 1.13023 30.43 30.43 1.79 0 0 0 28.0855 Si -0.00125977 0.00364111 0.00486233
585 2 -0.565113 29.535 29.535 0.895 0 0 0 15.9991 O 0.0132951 -0.0110009 -0.0266001
464 3 1.13023 34.01 26.85 1.79 0 0 0 28.0855 Si 0.0164014 0.00397769 0.00151703
468 2 -0.565113 33.115 27.745 2.685 0 0 0 15.9991 O -0.00981112 -0.0195932 0.00253213
473 2 -0.565113 34.905 27.745 0.895 0 0 0 15.9991 O 0.0357536 0.000351545 -0.0207524
594 2 -0.565113 31.325 29.535 2.685 0 0 0 15.9991 O 0.000260326 0.0212345 0.0227748
580 3 1.13023 32.22 28.64 3.58 0 0 0 28.0855 Si 0.00514496 -0.00923655 -0.00191898
483 3 1.13023 3.58 32.22 0 0 0 0 28.0855 Si -0.00374994 -0.0190179 -0.00204124
499 2 -0.565113 2.685 31.325 0.895 0 0 0 15.9991 O 0.00313803 -0.00817432 -0.0287255
503 2 -0.565113 0.895 31.325 2.685 0 0 0 15.9991 O 0.00896348 -0.00023316 -0.024013
482 3 1.13023 0 32.22 3.58 0 0 0 28.0855 Si 0.0227283 -0.0115823 -0.00835533
492 2 -0.565113 4.475 34.905 2.685 0 0 0 15.9991 O 0.0164531 -0.0118628 -0.0110757
504 2 -0.565113 4.475 33.115 0.895 0 0 0 15.9991 O -0.021623 0.0161604 0.0163951
488 3 1.13023 5.37 34.01 1.79 0 0 0 28.0855 Si -0.000801796 0.0167757 -0.0407131
494 2 -0.565113 6.265 33.115 2.685 0 0 0 15.9991 O 0.0242014 -0.00655791 0.00793331
497 2 -0.565113 6.265 34.905 0.895 0 0 0 15.9991 O 0.0128866 0.00384897 -0.00743324
527 2 -0.565113 8.055 31.325 2.685 0 0 0 15.9991 O 0.00833893 -0.0428282 -0.0201608
506 3 1.13023 7.16 32.22 3.58 0 0 0 28.0855 Si -0.00404013 0.00194799 0.00651412
523 2 -0.565113 9.845 31.325 0.895 0 0 0 15.9991 O 0.00248726 0.00552646 0.0201223
507 3 1.13023 10.74 32.22 0 0 0 0 28.0855 Si 0.013081 0.0104896 -0.00585834
512 3 1.13023 12.53 34.01 1.79 0 0 0 28.0855 Si -0.0036844 -0.0220724 -0.0211552
516 2 -0.565113 11.635 34.905 2.685 0 0 0 15.9991 O 0.00775348 -0.00803564 -0.0200581
528 2 -0.565113 11.635 33.115 0.895 0 0 0 15.9991 O 0.0107781 0.0143767 0.00720457
518 2 -0.565113 13.425 33.115 2.685 0 0 0 15.9991 O -0.0367999 -0.0229137 0.00213762
521 2 -0.565113 13.425 34.905 0.895 0 0 0 15.9991 O -0.039405 -0.0144243 -0.0344533
551 2 -0.565113 15.215 31.325 2.685 0 0 0 15.9991 O 0.0137424 -0.0265919 0.0255979
530 3 1.13023 14.32 32.22 3.58 0 0 0 28.0855 Si 0.0108565 -0.00399467 0.019984
547 2 -0.565113 17.005 31.325 0.895 0 0 0 15.9991 O 0.0319075 0.00977808 0.00316129
531 3 1.13023 17.9 32.22 0 0 0 0 28.0855 Si 0.0459202 0.0127697 -0.009448
536 3 1.13023 19.69 34.01 1.79 0 0 0 28.0855 Si 0.00920956 0.00239872 0.000341816
540 2 -0.565113 18.795 34.905 2.685 0 0 0 15.9991 O -0.0353552 -0.0122635 -0.023266
552 2 -0.565113 18.795 33.115 0.895 0 0 0 15.9991 O 0.0351874 0.00353592 0.00241356
542 2 -0.565113 20.585 33.115 2.685 0 0 0 15.9991 O -0.00690131 -0.00186907 -0.0226016
545 2 -0.565113 20.585 34.905 0.895 0 0 0 15.9991 O -0.0329409 0.0350689 -0.019732
554 3 1.13023 21.48 32.22 3.58 0 0 0 28.0855 Si -0.0101291 -0.0355341 0.012326
555 3 1.13023 25.06 32.22 0 0 0 0 28.0855 Si 0.0041267 0.018335 0.00337685
571 2 -0.565113 24.165 31.325 0.895 0 0 0 15.9991 O -0.00511715 0.0156189 -1.10107e-06
575 2 -0.565113 22.375 31.325 2.685 0 0 0 15.9991 O -0.0110764 0.0279137 -0.011236
564 2 -0.565113 25.955 34.905 2.685 0 0 0 15.9991 O -0.0198556 0.013677 -0.012896
576 2 -0.565113 25.955 33.115 0.895 0 0 0 15.9991 O -0.0153342 -0.0145831 -0.0266267
560 3 1.13023 26.85 34.01 1.79 0 0 0 28.0855 Si -0.00041267 -0.0117065 -0.00131104
566 2 -0.565113 27.745 33.115 2.685 0 0 0 15.9991 O -0.0568798 -0.0109941 0.00582541
569 2 -0.565113 27.745 34.905 0.895 0 0 0 15.9991 O -0.0134342 0.0315471 0.022419
599 2 -0.565113 29.535 31.325 2.685 0 0 0 15.9991 O 0.0236279 0.014621 0.0186536
578 3 1.13023 28.64 32.22 3.58 0 0 0 28.0855 Si 0.0164618 -0.0135486 -0.00943124
579 3 1.13023 32.22 32.22 0 0 0 0 28.0855 Si -0.019419 -0.0128297 -0.0179043
584 3 1.13023 34.01 34.01 1.79 0 0 0 28.0855 Si -0.00608396 -0.0245918 -0.0107466
588 2 -0.565113 33.115 34.905 2.685 0 0 0 15.9991 O -0.0234706 -0.0525041 0.0101728
590 2 -0.565113 34.905 33.115 2.685 0 0 0 15.9991 O 0.0156337 -0.0181552 -0.0207876
593 2 -0.565113 34.905 34.905 0.895 0 0 0 15.9991 O -0.0154602 0.00360555 -0.0110277
595 2 -0.565113 31.325 31.325 0.895 0 0 0 15.9991 O -0.0250825 -0.0358868 -0.0330482
600 2 -0.565113 33.115 33.115 0.895 0 0 0 15.9991 O 0.00335059 0.0314567 -0.00523212
601 3 1.13023 0 0 7.16 0 0 0 28.0855 Si 0.0112123 0.0246747 0.0122573
603 3 1.13023 3.58 3.58 7.16 0 0 0 28.0855 Si 0.00395772 0.00441401 -0.0153258
609 2 -0.565113 0.895 0.895 8.055 0 0 0 15.9991 O 0.00127835 0.0136738 0.000366702
619 2 -0.565113 2.685 2.685 8.055 0 0 0 15.9991 O 0.00468887 0.0300549 -0.0187613
21 2 -0.565113 4.475 0.895 4.475 0 0 0 15.9991 O -0.0159761 -0.0191068 0.0218589
5 3 1.13023 5.37 1.79 5.37 0 0 0 28.0855 Si -0.0182077 0.00916934 0.0282113
10 2 -0.565113 6.265 2.685 4.475 0 0 0 15.9991 O -0.0112439 -0.00481568 0.0033734
15 2 -0.565113 4.475 2.685 6.265 0 0 0 15.9991 O 0.00586855 0.0109512 -0.00295087
625 3 1.13023 7.16 0 7.16 0 0 0 28.0855 Si -0.00298322 -0.0057897 -0.00949327
633 2 -0.565113 8.055 0.895 8.055 0 0 0 15.9991 O -0.00263856 -0.00644063 0.00845345
20 2 -0.565113 6.265 0.895 6.265 0 0 0 15.9991 O -0.00808868 -0.0179541 -0.0251597
29 3 1.13023 12.53 1.79 5.37 0 0 0 28.0855 Si -0.00169187 -0.00938175 0.00806407
45 2 -0.565113 11.635 0.895 4.475 0 0 0 15.9991 O 0.0105174 0.00387582 -0.0186084
643 2 -0.565113 9.845 2.685 8.055 0 0 0 15.9991 O -0.020047 0.0178902 0.00550645