ITEM: TIMESTEP
0
ITEM: NUMBER OF ATOMS
3
ITEM: BOX BOUNDS pp pp pp
0.0000000000000000e+00 5.1399999999999997e+00
0.0000000000000000e+00 5.1399999999999997e+00
0.0000000000000000e+00 5.1399999999999997e+00
ITEM: ATOMS id type xs ys zs
2 2 0.291829 0.291829 0.291829
1 3 0.505837 0.505837 0.505837
3 2 0.77821 0.77821 0.77821
ITEM: TIMESTEP
10
ITEM: NUMBER OF ATOMS
3
ITEM: BOX BOUNDS pp pp pp
0.0000000000000000e+00 5.1399999999999997e+00
0.0000000000000000e+00 5.1399999999999997e+00
0.0000000000000000e+00 5.1399999999999997e+00
ITEM: ATOMS id type xs ys zs
2 2 0.345141 0.345141 0.345141
1 3 0.49393 0.49393 0.49393
3 2 0.736805 0.736805 0.736805
ITEM: TIMESTEP
20
ITEM: NUMBER OF ATOMS
3
ITEM: BOX BOUNDS pp pp pp
0.0000000000000000e+00 5.1399999999999997e+00
0.0000000000000000e+00 5.1399999999999997e+00
0.0000000000000000e+00 5.1399999999999997e+00
ITEM: ATOMS id type xs ys zs
2 2 0.369011 0.369011 0.369749
1 3 0.522033 0.522034 0.52078
3 2 0.684831 0.684831 0.685346
ITEM: TIMESTEP
30
ITEM: NUMBER OF ATOMS
3
ITEM: BOX BOUNDS pp pp pp
0.0000000000000000e+00 5.1399999999999997e+00
0.0000000000000000e+00 5.1399999999999997e+00
0.0000000000000000e+00 5.1399999999999997e+00
ITEM: ATOMS id type xs ys zs
2 2 0.369027 0.369026 0.369765
1 3 0.522038 0.522039 0.520786
3 2 0.684811 0.684811 0.685325
ITEM: TIMESTEP
40
ITEM: NUMBER OF ATOMS
3
ITEM: BOX BOUNDS pp pp pp
0.0000000000000000e+00 5.1399999999999997e+00
0.0000000000000000e+00 5.1399999999999997e+00
0.0000000000000000e+00 5.1399999999999997e+00
ITEM: ATOMS id type xs ys zs
2 2 0.408198 0.408197 0.409764
3 2 0.213488 0.213507 0.1731
1 3 0.768216 0.768206 0.789793
ITEM: TIMESTEP
50
ITEM: NUMBER OF ATOMS
3
ITEM: BOX BOUNDS pp pp pp
0.0000000000000000e+00 5.1399999999999997e+00
0.0000000000000000e+00 5.1399999999999997e+00
0.0000000000000000e+00 5.1399999999999997e+00
ITEM: ATOMS id type xs ys zs
2 2 0.368492 0.368496 0.3615
3 2 0.253199 0.253213 0.221364
1 3 0.768213 0.768203 0.789793
ITEM: TIMESTEP
60
ITEM: NUMBER OF ATOMS
3
ITEM: BOX BOUNDS pp pp pp
0.0000000000000000e+00 5.1399999999999997e+00
0.0000000000000000e+00 5.1399999999999997e+00
0.0000000000000000e+00 5.1399999999999997e+00
ITEM: ATOMS id type xs ys zs
2 2 0.368498 0.368501 0.361503
3 2 0.253199 0.253214 0.221362
1 3 0.76821 0.7682 0.789792
ITEM: TIMESTEP
70
ITEM: NUMBER OF ATOMS
3
ITEM: BOX BOUNDS pp pp pp
0.0000000000000000e+00 5.1399999999999997e+00
0.0000000000000000e+00 5.1399999999999997e+00
0.0000000000000000e+00 5.1399999999999997e+00
ITEM: ATOMS id type xs ys zs
2 2 0.368501 0.368504 0.361503
3 2 0.253202 0.253216 0.221362
1 3 0.768207 0.768197 0.789792
ITEM: TIMESTEP
80
ITEM: NUMBER OF ATOMS
3
ITEM: BOX BOUNDS pp pp pp
0.0000000000000000e+00 5.1399999999999997e+00
0.0000000000000000e+00 5.1399999999999997e+00
0.0000000000000000e+00 5.1399999999999997e+00
ITEM: ATOMS id type xs ys zs
2 2 0.368504 0.368507 0.361503
3 2 0.253205 0.25322 0.221362
1 3 0.768203 0.768193 0.789792
ITEM: TIMESTEP
90
ITEM: NUMBER OF ATOMS
3
ITEM: BOX BOUNDS pp pp pp
0.0000000000000000e+00 5.1399999999999997e+00
0.0000000000000000e+00 5.1399999999999997e+00
0.0000000000000000e+00 5.1399999999999997e+00
ITEM: ATOMS id type xs ys zs
2 2 0.368508 0.368511 0.361503
3 2 0.253208 0.253223 0.221363
1 3 0.768199 0.768189 0.789791
ITEM: TIMESTEP
100
ITEM: NUMBER OF ATOMS
3
ITEM: BOX BOUNDS pp pp pp
0.0000000000000000e+00 5.1399999999999997e+00
0.0000000000000000e+00 5.1399999999999997e+00
0.0000000000000000e+00 5.1399999999999997e+00
ITEM: ATOMS id type xs ys zs
2 2 0.368511 0.368514 0.361503
3 2 0.253212 0.253226 0.221363
1 3 0.768195 0.768185 0.789791
ITEM: TIMESTEP
110
ITEM: NUMBER OF ATOMS
3
ITEM: BOX BOUNDS pp pp pp
0.0000000000000000e+00 5.1399999999999997e+00
0.0000000000000000e+00 5.1399999999999997e+00
0.0000000000000000e+00 5.1399999999999997e+00
ITEM: ATOMS id type xs ys zs
2 2 0.368515 0.368518 0.361503
3 2 0.253215 0.25323 0.221364
1 3 0.768191 0.768181 0.789791
ITEM: TIMESTEP
120
ITEM: NUMBER OF ATOMS
3
ITEM: BOX BOUNDS pp pp pp
0.0000000000000000e+00 5.1399999999999997e+00
0.0000000000000000e+00 5.1399999999999997e+00
0.0000000000000000e+00 5.1399999999999997e+00
ITEM: ATOMS id type xs ys zs
2 2 0.368519 0.368522 0.361503
3 2 0.253219 0.253234 0.221365
1 3 0.768186 0.768176 0.78979
ITEM: TIMESTEP
130
ITEM: NUMBER OF ATOMS
3
ITEM: BOX BOUNDS pp pp pp
0.0000000000000000e+00 5.1399999999999997e+00
0.0000000000000000e+00 5.1399999999999997e+00
0.0000000000000000e+00 5.1399999999999997e+00
ITEM: ATOMS id type xs ys zs
2 2 0.368523 0.368527 0.361504
3 2 0.253223 0.253238 0.221365
1 3 0.768182 0.768172 0.78979
ITEM: TIMESTEP
140
ITEM: NUMBER OF ATOMS
3
ITEM: BOX BOUNDS pp pp pp
0.0000000000000000e+00 5.1399999999999997e+00
0.0000000000000000e+00 5.1399999999999997e+00
0.0000000000000000e+00 5.1399999999999997e+00
ITEM: ATOMS id type xs ys zs
2 2 0.368528 0.368531 0.361504
3 2 0.253227 0.253242 0.221366
1 3 0.768177 0.768167 0.789789
ITEM: TIMESTEP
150
ITEM: NUMBER OF ATOMS
3
ITEM: BOX BOUNDS pp pp pp
0.0000000000000000e+00 5.1399999999999997e+00
0.0000000000000000e+00 5.1399999999999997e+00
0.0000000000000000e+00 5.1399999999999997e+00
ITEM: ATOMS id type xs ys zs
2 2 0.368532 0.368535 0.361504
3 2 0.253231 0.253246 0.221366
1 3 0.768172 0.768162 0.789789
ITEM: TIMESTEP
160
ITEM: NUMBER OF ATOMS
3
ITEM: BOX BOUNDS pp pp pp
0.0000000000000000e+00 5.1399999999999997e+00
0.0000000000000000e+00 5.1399999999999997e+00
0.0000000000000000e+00 5.1399999999999997e+00
ITEM: ATOMS id type xs ys zs
2 2 0.368537 0.36854 0.361504
3 2 0.253236 0.25325 0.221367
1 3 0.768167 0.768157 0.789789
ITEM: TIMESTEP
170
ITEM: NUMBER OF ATOMS
3
ITEM: BOX BOUNDS pp pp pp
0.0000000000000000e+00 5.1399999999999997e+00
0.0000000000000000e+00 5.1399999999999997e+00
0.0000000000000000e+00 5.1399999999999997e+00
ITEM: ATOMS id type xs ys zs
2 2 0.368542 0.368545 0.361504
3 2 0.25324 0.253255 0.221368
1 3 0.768161 0.768151 0.789788
ITEM: TIMESTEP
180
ITEM: NUMBER OF ATOMS
3
ITEM: BOX BOUNDS pp pp pp
0.0000000000000000e+00 5.1399999999999997e+00
0.0000000000000000e+00 5.1399999999999997e+00
0.0000000000000000e+00 5.1399999999999997e+00
ITEM: ATOMS id type xs ys zs
2 2 0.368547 0.36855 0.361505
3 2 0.253245 0.25326 0.221368
1 3 0.768156 0.768146 0.789788
ITEM: TIMESTEP
190
ITEM: NUMBER OF ATOMS
3
ITEM: BOX BOUNDS pp pp pp
0.0000000000000000e+00 5.1399999999999997e+00
0.0000000000000000e+00 5.1399999999999997e+00
0.0000000000000000e+00 5.1399999999999997e+00
ITEM: ATOMS id type xs ys zs
2 2 0.368552 0.368555 0.361505
3 2 0.25325 0.253264 0.221369
1 3 0.76815 0.76814 0.789787
ITEM: TIMESTEP
200
ITEM: NUMBER OF ATOMS
3
ITEM: BOX BOUNDS pp pp pp
0.0000000000000000e+00 5.1399999999999997e+00
0.0000000000000000e+00 5.1399999999999997e+00
0.0000000000000000e+00 5.1399999999999997e+00
ITEM: ATOMS id type xs ys zs
2 2 0.368557 0.36856 0.361505
3 2 0.253255 0.253269 0.22137
1 3 0.768144 0.768135 0.789786
ITEM: TIMESTEP
210
ITEM: NUMBER OF ATOMS
3
ITEM: BOX BOUNDS pp pp pp
0.0000000000000000e+00 5.1399999999999997e+00
0.0000000000000000e+00 5.1399999999999997e+00
0.0000000000000000e+00 5.1399999999999997e+00
ITEM: ATOMS id type xs ys zs
2 2 0.368562 0.368566 0.361505
3 2 0.25326 0.253274 0.221371
1 3 0.768139 0.768129 0.789786
ITEM: TIMESTEP
220
ITEM: NUMBER OF ATOMS
3
ITEM: BOX BOUNDS pp pp pp
0.0000000000000000e+00 5.1399999999999997e+00
0.0000000000000000e+00 5.1399999999999997e+00
0.0000000000000000e+00 5.1399999999999997e+00
ITEM: ATOMS id type xs ys zs
2 2 0.368568 0.368571 0.361505
3 2 0.253265 0.25328 0.221371
1 3 0.768132 0.768122 0.789785
ITEM: TIMESTEP
230
ITEM: NUMBER OF ATOMS
3
ITEM: BOX BOUNDS pp pp pp
0.0000000000000000e+00 5.1399999999999997e+00
0.0000000000000000e+00 5.1399999999999997e+00
0.0000000000000000e+00 5.1399999999999997e+00
ITEM: ATOMS id type xs ys zs
2 2 0.368574 0.368577 0.361506
3 2 0.25327 0.253285 0.221372
1 3 0.768126 0.768116 0.789785
ITEM: TIMESTEP
240
ITEM: NUMBER OF ATOMS
3
ITEM: BOX BOUNDS pp pp pp
0.0000000000000000e+00 5.1399999999999997e+00
0.0000000000000000e+00 5.1399999999999997e+00
0.0000000000000000e+00 5.1399999999999997e+00
ITEM: ATOMS id type xs ys zs
2 2 0.368579 0.368583 0.361506
3 2 0.253276 0.25329 0.221373
1 3 0.76812 0.76811 0.789784
ITEM: TIMESTEP
250
ITEM: NUMBER OF ATOMS
3
ITEM: BOX BOUNDS pp pp pp
0.0000000000000000e+00 5.1399999999999997e+00
0.0000000000000000e+00 5.1399999999999997e+00
0.0000000000000000e+00 5.1399999999999997e+00
ITEM: ATOMS id type xs ys zs
2 2 0.368585 0.368589 0.361506
3 2 0.253281 0.253296 0.221374
1 3 0.768113 0.768103 0.789784
ITEM: TIMESTEP
260
ITEM: NUMBER OF ATOMS
3
ITEM: BOX BOUNDS pp pp pp
0.0000000000000000e+00 5.1399999999999997e+00
0.0000000000000000e+00 5.1399999999999997e+00
0.0000000000000000e+00 5.1399999999999997e+00
ITEM: ATOMS id type xs ys zs
2 2 0.368591 0.368595 0.361506
3 2 0.253287 0.253302 0.221375
1 3 0.768107 0.768097 0.789783
ITEM: TIMESTEP
270
ITEM: NUMBER OF ATOMS
3
ITEM: BOX BOUNDS pp pp pp
0.0000000000000000e+00 5.1399999999999997e+00
0.0000000000000000e+00 5.1399999999999997e+00
0.0000000000000000e+00 5.1399999999999997e+00
ITEM: ATOMS id type xs ys zs
2 2 0.368598 0.368601 0.361506
3 2 0.253293 0.253307 0.221375
1 3 0.7681 0.76809 0.789782
ITEM: TIMESTEP
280
ITEM: NUMBER OF ATOMS
3
ITEM: BOX BOUNDS pp pp pp
0.0000000000000000e+00 5.1399999999999997e+00
0.0000000000000000e+00 5.1399999999999997e+00
0.0000000000000000e+00 5.1399999999999997e+00
ITEM: ATOMS id type xs ys zs
2 2 0.368604 0.368607 0.361507
3 2 0.253298 0.253313 0.221376
1 3 0.768093 0.768083 0.789782
ITEM: TIMESTEP
290
ITEM: NUMBER OF ATOMS
3
ITEM: BOX BOUNDS pp pp pp
0.0000000000000000e+00 5.1399999999999997e+00
0.0000000000000000e+00 5.1399999999999997e+00
0.0000000000000000e+00 5.1399999999999997e+00
ITEM: ATOMS id type xs ys zs
2 2 0.36861 0.368613 0.361507
3 2 0.253305 0.253319 0.221377
1 3 0.768086 0.768076 0.789781
ITEM: TIMESTEP
300
ITEM: NUMBER OF ATOMS
3
ITEM: BOX BOUNDS pp pp pp
0.0000000000000000e+00 5.1399999999999997e+00
0.0000000000000000e+00 5.1399999999999997e+00
0.0000000000000000e+00 5.1399999999999997e+00
ITEM: ATOMS id type xs ys zs
2 2 0.368617 0.36862 0.361507
3 2 0.253311 0.253325 0.221378
1 3 0.768079 0.768069 0.78978
ITEM: TIMESTEP
310
ITEM: NUMBER OF ATOMS
3
ITEM: BOX BOUNDS pp pp pp
0.0000000000000000e+00 5.1399999999999997e+00
0.0000000000000000e+00 5.1399999999999997e+00
0.0000000000000000e+00 5.1399999999999997e+00
ITEM: ATOMS id type xs ys zs
2 2 0.368623 0.368627 0.361508
3 2 0.253317 0.253332 0.221379
1 3 0.768071 0.768061 0.78978
ITEM: TIMESTEP
320
ITEM: NUMBER OF ATOMS
3
ITEM: BOX BOUNDS pp pp pp
0.0000000000000000e+00 5.1399999999999997e+00
0.0000000000000000e+00 5.1399999999999997e+00
0.0000000000000000e+00 5.1399999999999997e+00
ITEM: ATOMS id type xs ys zs
2 2 0.36863 0.368633 0.361508
3 2 0.253323 0.253338 0.22138
1 3 0.768064 0.768054 0.789779
ITEM: TIMESTEP
330
ITEM: NUMBER OF ATOMS
3
ITEM: BOX BOUNDS pp pp pp
0.0000000000000000e+00 5.1399999999999997e+00
0.0000000000000000e+00 5.1399999999999997e+00
0.0000000000000000e+00 5.1399999999999997e+00
ITEM: ATOMS id type xs ys zs
2 2 0.368637 0.36864 0.361508
3 2 0.25333 0.253344 0.221381
1 3 0.768056 0.768046 0.789778
ITEM: TIMESTEP
340
ITEM: NUMBER OF ATOMS
3
ITEM: BOX BOUNDS pp pp pp
0.0000000000000000e+00 5.1399999999999997e+00
0.0000000000000000e+00 5.1399999999999997e+00
0.0000000000000000e+00 5.1399999999999997e+00
ITEM: ATOMS id type xs ys zs
2 2 0.368644 0.368647 0.361508
3 2 0.253336 0.253351 0.221382
1 3 0.768049 0.768039 0.789778
ITEM: TIMESTEP
350
ITEM: NUMBER OF ATOMS
3
ITEM: BOX BOUNDS pp pp pp
0.0000000000000000e+00 5.1399999999999997e+00
0.0000000000000000e+00 5.1399999999999997e+00
0.0000000000000000e+00 5.1399999999999997e+00
ITEM: ATOMS id type xs ys zs
2 2 0.368651 0.368654 0.361509
3 2 0.253343 0.253358 0.221383
1 3 0.768041 0.768031 0.789777
ITEM: TIMESTEP
360
ITEM: NUMBER OF ATOMS
3
ITEM: BOX BOUNDS pp pp pp
0.0000000000000000e+00 5.1399999999999997e+00
0.0000000000000000e+00 5.1399999999999997e+00
0.0000000000000000e+00 5.1399999999999997e+00
ITEM: ATOMS id type xs ys zs
2 2 0.368658 0.368661 0.361509
3 2 0.25335 0.253364 0.221384
1 3 0.768033 0.768023 0.789776
ITEM: TIMESTEP
370
ITEM: NUMBER OF ATOMS
3
ITEM: BOX BOUNDS pp pp pp
0.0000000000000000e+00 5.1399999999999997e+00
0.0000000000000000e+00 5.1399999999999997e+00
0.0000000000000000e+00 5.1399999999999997e+00
ITEM: ATOMS id type xs ys zs
2 2 0.368665 0.368669 0.361509
3 2 0.253356 0.253371 0.221385
1 3 0.768025 0.768015 0.789775
ITEM: TIMESTEP
380
ITEM: NUMBER OF ATOMS
3
ITEM: BOX BOUNDS pp pp pp
0.0000000000000000e+00 5.1399999999999997e+00
0.0000000000000000e+00 5.1399999999999997e+00
0.0000000000000000e+00 5.1399999999999997e+00
ITEM: ATOMS id type xs ys zs
2 2 0.368673 0.368676 0.361509
3 2 0.253363 0.253378 0.221386
1 3 0.768016 0.768006 0.789775
ITEM: TIMESTEP
390
ITEM: NUMBER OF ATOMS
3
ITEM: BOX BOUNDS pp pp pp
0.0000000000000000e+00 5.1399999999999997e+00
0.0000000000000000e+00 5.1399999999999997e+00
0.0000000000000000e+00 5.1399999999999997e+00
ITEM: ATOMS id type xs ys zs
2 2 0.36868 0.368684 0.36151
3 2 0.25337 0.253385 0.221387
1 3 0.768008 0.767998 0.789774
ITEM: TIMESTEP
400
ITEM: NUMBER OF ATOMS
3
ITEM: BOX BOUNDS pp pp pp
0.0000000000000000e+00 5.1399999999999997e+00
0.0000000000000000e+00 5.1399999999999997e+00
0.0000000000000000e+00 5.1399999999999997e+00
ITEM: ATOMS id type xs ys zs
2 2 0.368688 0.368691 0.36151
3 2 0.253378 0.253392 0.221388
1 3 0.768 0.76799 0.789773
ITEM: TIMESTEP
410
ITEM: NUMBER OF ATOMS
3
ITEM: BOX BOUNDS pp pp pp
0.0000000000000000e+00 5.1399999999999997e+00
0.0000000000000000e+00 5.1399999999999997e+00
0.0000000000000000e+00 5.1399999999999997e+00
ITEM: ATOMS id type xs ys zs
2 2 0.368696 0.368699 0.36151
3 2 0.253385 0.2534 0.221389
1 3 0.767991 0.767981 0.789772
ITEM: TIMESTEP
420
ITEM: NUMBER OF ATOMS
3
ITEM: BOX BOUNDS pp pp pp
0.0000000000000000e+00 5.1399999999999997e+00
0.0000000000000000e+00 5.1399999999999997e+00
0.0000000000000000e+00 5.1399999999999997e+00
ITEM: ATOMS id type xs ys zs
2 2 0.368704 0.368707 0.361511
3 2 0.253392 0.253407 0.22139
1 3 0.767983 0.767973 0.789772
ITEM: TIMESTEP
430
ITEM: NUMBER OF ATOMS
3
ITEM: BOX BOUNDS pp pp pp
0.0000000000000000e+00 5.1399999999999997e+00
0.0000000000000000e+00 5.1399999999999997e+00
0.0000000000000000e+00 5.1399999999999997e+00
ITEM: ATOMS id type xs ys zs
2 2 0.368712 0.368715 0.361511
3 2 0.2534 0.253415 0.221391
1 3 0.767974 0.767964 0.789771
ITEM: TIMESTEP
440
ITEM: NUMBER OF ATOMS
3
ITEM: BOX BOUNDS pp pp pp
0.0000000000000000e+00 5.1399999999999997e+00
0.0000000000000000e+00 5.1399999999999997e+00
0.0000000000000000e+00 5.1399999999999997e+00
ITEM: ATOMS id type xs ys zs
2 2 0.36872 0.368723 0.361511
3 2 0.253407 0.253422 0.221392
1 3 0.767965 0.767955 0.78977
ITEM: TIMESTEP
450
ITEM: NUMBER OF ATOMS
3
ITEM: BOX BOUNDS pp pp pp
0.0000000000000000e+00 5.1399999999999997e+00
0.0000000000000000e+00 5.1399999999999997e+00
0.0000000000000000e+00 5.1399999999999997e+00
ITEM: ATOMS id type xs ys zs
2 2 0.368728 0.368731 0.361512
3 2 0.253415 0.25343 0.221393
1 3 0.767956 0.767946 0.789769
ITEM: TIMESTEP
460
ITEM: NUMBER OF ATOMS
3
ITEM: BOX BOUNDS pp pp pp
0.0000000000000000e+00 5.1399999999999997e+00
0.0000000000000000e+00 5.1399999999999997e+00
0.0000000000000000e+00 5.1399999999999997e+00
ITEM: ATOMS id type xs ys zs
2 2 0.368736 0.368739 0.361512
3 2 0.253423 0.253437 0.221395
1 3 0.767947 0.767937 0.789768
ITEM: TIMESTEP
470
ITEM: NUMBER OF ATOMS
3
ITEM: BOX BOUNDS pp pp pp
0.0000000000000000e+00 5.1399999999999997e+00
0.0000000000000000e+00 5.1399999999999997e+00
0.0000000000000000e+00 5.1399999999999997e+00
ITEM: ATOMS id type xs ys zs
2 2 0.368744 0.368748 0.361512
3 2 0.253431 0.253445 0.221396
1 3 0.767938 0.767928 0.789767
ITEM: TIMESTEP
480
ITEM: NUMBER OF ATOMS
3
ITEM: BOX BOUNDS pp pp pp
0.0000000000000000e+00 5.1399999999999997e+00
0.0000000000000000e+00 5.1399999999999997e+00
0.0000000000000000e+00 5.1399999999999997e+00
ITEM: ATOMS id type xs ys zs
2 2 0.368753 0.368756 0.361513
3 2 0.253438 0.253453 0.221397
1 3 0.767928 0.767918 0.789767
ITEM: TIMESTEP
490
ITEM: NUMBER OF ATOMS
3
ITEM: BOX BOUNDS pp pp pp
0.0000000000000000e+00 5.1399999999999997e+00
0.0000000000000000e+00 5.1399999999999997e+00
0.0000000000000000e+00 5.1399999999999997e+00
ITEM: ATOMS id type xs ys zs
2 2 0.368761 0.368765 0.361513
3 2 0.253446 0.253461 0.221398
1 3 0.767919 0.767909 0.789766
ITEM: TIMESTEP
500
ITEM: NUMBER OF ATOMS
3
ITEM: BOX BOUNDS pp pp pp
0.0000000000000000e+00 5.1399999999999997e+00
0.0000000000000000e+00 5.1399999999999997e+00
0.0000000000000000e+00 5.1399999999999997e+00
ITEM: ATOMS id type xs ys zs
2 2 0.36877 0.368773 0.361513
3 2 0.253455 0.253469 0.221399
1 3 0.767909 0.767899 0.789765
ITEM: TIMESTEP
510
ITEM: NUMBER OF ATOMS
3
ITEM: BOX BOUNDS pp pp pp
0.0000000000000000e+00 5.1399999999999997e+00
0.0000000000000000e+00 5.1399999999999997e+00
0.0000000000000000e+00 5.1399999999999997e+00
ITEM: ATOMS id type xs ys zs
2 2 0.368779 0.368782 0.361514
3 2 0.253463 0.253478 0.221401
1 3 0.7679 0.76789 0.789764
ITEM: TIMESTEP
520
ITEM: NUMBER OF ATOMS
3
ITEM: BOX BOUNDS pp pp pp
0.0000000000000000e+00 5.1399999999999997e+00
0.0000000000000000e+00 5.1399999999999997e+00
0.0000000000000000e+00 5.1399999999999997e+00
ITEM: ATOMS id type xs ys zs
2 2 0.368787 0.368791 0.361514
3 2 0.253471 0.253486 0.221402
1 3 0.76789 0.76788 0.789763
ITEM: TIMESTEP
530
ITEM: NUMBER OF ATOMS
3
ITEM: BOX BOUNDS pp pp pp
0.0000000000000000e+00 5.1399999999999997e+00
0.0000000000000000e+00 5.1399999999999997e+00
0.0000000000000000e+00 5.1399999999999997e+00
ITEM: ATOMS id type xs ys zs
2 2 0.368796 0.3688 0.361514
3 2 0.25348 0.253494 0.221403
1 3 0.76788 0.76787 0.789762
ITEM: TIMESTEP
540
ITEM: NUMBER OF ATOMS
3
ITEM: BOX BOUNDS pp pp pp
0.0000000000000000e+00 5.1399999999999997e+00
0.0000000000000000e+00 5.1399999999999997e+00
0.0000000000000000e+00 5.1399999999999997e+00
ITEM: ATOMS id type xs ys zs
2 2 0.368805 0.368809 0.361515
3 2 0.253488 0.253503 0.221404
1 3 0.76787 0.76786 0.789761
ITEM: TIMESTEP
550
ITEM: NUMBER OF ATOMS
3
ITEM: BOX BOUNDS pp pp pp
0.0000000000000000e+00 5.1399999999999997e+00
0.0000000000000000e+00 5.1399999999999997e+00
0.0000000000000000e+00 5.1399999999999997e+00
ITEM: ATOMS id type xs ys zs
2 2 0.368815 0.368818 0.361515
3 2 0.253497 0.253511 0.221405
1 3 0.76786 0.76785 0.78976
ITEM: TIMESTEP
560
ITEM: NUMBER OF ATOMS
3
ITEM: BOX BOUNDS pp pp pp
0.0000000000000000e+00 5.1399999999999997e+00
0.0000000000000000e+00 5.1399999999999997e+00
0.0000000000000000e+00 5.1399999999999997e+00
ITEM: ATOMS id type xs ys zs
2 2 0.368824 0.368827 0.361515
3 2 0.253505 0.25352 0.221407
1 3 0.76785 0.76784 0.789759
ITEM: TIMESTEP
570
ITEM: NUMBER OF ATOMS
3
ITEM: BOX BOUNDS pp pp pp
0.0000000000000000e+00 5.1399999999999997e+00
0.0000000000000000e+00 5.1399999999999997e+00
0.0000000000000000e+00 5.1399999999999997e+00
ITEM: ATOMS id type xs ys zs
2 2 0.368833 0.368837 0.361516
3 2 0.253514 0.253529 0.221408
1 3 0.767839 0.767829 0.789758
ITEM: TIMESTEP
580
ITEM: NUMBER OF ATOMS
3
ITEM: BOX BOUNDS pp pp pp
0.0000000000000000e+00 5.1399999999999997e+00
0.0000000000000000e+00 5.1399999999999997e+00
0.0000000000000000e+00 5.1399999999999997e+00
ITEM: ATOMS id type xs ys zs
2 2 0.368843 0.368846 0.361516
3 2 0.253523 0.253538 0.221409
1 3 0.767829 0.767819 0.789758
ITEM: TIMESTEP
590
ITEM: NUMBER OF ATOMS
3
ITEM: BOX BOUNDS pp pp pp
0.0000000000000000e+00 5.1399999999999997e+00
0.0000000000000000e+00 5.1399999999999997e+00
0.0000000000000000e+00 5.1399999999999997e+00
ITEM: ATOMS id type xs ys zs
2 2 0.368852 0.368855 0.361517
3 2 0.253532 0.253547 0.221411
1 3 0.767818 0.767808 0.789757
ITEM: TIMESTEP
600
ITEM: NUMBER OF ATOMS
3
ITEM: BOX BOUNDS pp pp pp
0.0000000000000000e+00 5.1399999999999997e+00
0.0000000000000000e+00 5.1399999999999997e+00
0.0000000000000000e+00 5.1399999999999997e+00
ITEM: ATOMS id type xs ys zs
2 2 0.368862 0.368865 0.361517
3 2 0.253541 0.253556 0.221412
1 3 0.767808 0.767798 0.789756
ITEM: TIMESTEP
610
ITEM: NUMBER OF ATOMS
3
ITEM: BOX BOUNDS pp pp pp
0.0000000000000000e+00 5.1399999999999997e+00
0.0000000000000000e+00 5.1399999999999997e+00
0.0000000000000000e+00 5.1399999999999997e+00
ITEM: ATOMS id type xs ys zs
2 2 0.368871 0.368875 0.361517
3 2 0.25355 0.253565 0.221413
1 3 0.767797 0.767787 0.789755
ITEM: TIMESTEP
620
ITEM: NUMBER OF ATOMS
3
ITEM: BOX BOUNDS pp pp pp
0.0000000000000000e+00 5.1399999999999997e+00
0.0000000000000000e+00 5.1399999999999997e+00
0.0000000000000000e+00 5.1399999999999997e+00
ITEM: ATOMS id type xs ys zs
2 2 0.368881 0.368885 0.361518
3 2 0.253559 0.253574 0.221415
1 3 0.767786 0.767776 0.789754
ITEM: TIMESTEP
630
ITEM: NUMBER OF ATOMS
3
ITEM: BOX BOUNDS pp pp pp
0.0000000000000000e+00 5.1399999999999997e+00
0.0000000000000000e+00 5.1399999999999997e+00
0.0000000000000000e+00 5.1399999999999997e+00
ITEM: ATOMS id type xs ys zs
2 2 0.368891 0.368894 0.361518
3 2 0.253569 0.253583 0.221416
1 3 0.767775 0.767765 0.789753
ITEM: TIMESTEP
640
ITEM: NUMBER OF ATOMS
3
ITEM: BOX BOUNDS pp pp pp
0.0000000000000000e+00 5.1399999999999997e+00
0.0000000000000000e+00 5.1399999999999997e+00
0.0000000000000000e+00 5.1399999999999997e+00
ITEM: ATOMS id type xs ys zs
2 2 0.368901 0.368904 0.361519
3 2 0.253578 0.253593 0.221417
1 3 0.767764 0.767754 0.789752
ITEM: TIMESTEP
650
ITEM: NUMBER OF ATOMS
3
ITEM: BOX BOUNDS pp pp pp
0.0000000000000000e+00 5.1399999999999997e+00
0.0000000000000000e+00 5.1399999999999997e+00
0.0000000000000000e+00 5.1399999999999997e+00
ITEM: ATOMS id type xs ys zs
2 2 0.368911 0.368915 0.361519
3 2 0.253588 0.253602 0.221419
1 3 0.767753 0.767743 0.789751
ITEM: TIMESTEP
660
ITEM: NUMBER OF ATOMS
3
ITEM: BOX BOUNDS pp pp pp
0.0000000000000000e+00 5.1399999999999997e+00
0.0000000000000000e+00 5.1399999999999997e+00
0.0000000000000000e+00 5.1399999999999997e+00
ITEM: ATOMS id type xs ys zs
2 2 0.368921 0.368925 0.361519
3 2 0.253597 0.253612 0.22142
1 3 0.767742 0.767732 0.78975
ITEM: TIMESTEP
670
ITEM: NUMBER OF ATOMS
3
ITEM: BOX BOUNDS pp pp pp
0.0000000000000000e+00 5.1399999999999997e+00
0.0000000000000000e+00 5.1399999999999997e+00
0.0000000000000000e+00 5.1399999999999997e+00
ITEM: ATOMS id type xs ys zs
2 2 0.368932 0.368935 0.36152
3 2 0.253607 0.253622 0.221422
1 3 0.76773 0.76772 0.789749
ITEM: TIMESTEP
680
ITEM: NUMBER OF ATOMS
3
ITEM: BOX BOUNDS pp pp pp
0.0000000000000000e+00 5.1399999999999997e+00
0.0000000000000000e+00 5.1399999999999997e+00
0.0000000000000000e+00 5.1399999999999997e+00
ITEM: ATOMS id type xs ys zs
2 2 0.368942 0.368945 0.36152
3 2 0.253617 0.253631 0.221423
1 3 0.767719 0.767709 0.789748
ITEM: TIMESTEP
690
ITEM: NUMBER OF ATOMS
3
ITEM: BOX BOUNDS pp pp pp
0.0000000000000000e+00 5.1399999999999997e+00
0.0000000000000000e+00 5.1399999999999997e+00
0.0000000000000000e+00 5.1399999999999997e+00
ITEM: ATOMS id type xs ys zs
2 2 0.368952 0.368956 0.361521
3 2 0.253626 0.253641 0.221424
1 3 0.767707 0.767697 0.789746
ITEM: TIMESTEP
700
ITEM: NUMBER OF ATOMS
3
ITEM: BOX BOUNDS pp pp pp
0.0000000000000000e+00 5.1399999999999997e+00
0.0000000000000000e+00 5.1399999999999997e+00
0.0000000000000000e+00 5.1399999999999997e+00
ITEM: ATOMS id type xs ys zs
2 2 0.368963 0.368966 0.361521
3 2 0.253636 0.253651 0.221426
1 3 0.767696 0.767686 0.789745
ITEM: TIMESTEP
710
ITEM: NUMBER OF ATOMS
3
ITEM: BOX BOUNDS pp pp pp
0.0000000000000000e+00 5.1399999999999997e+00
0.0000000000000000e+00 5.1399999999999997e+00
0.0000000000000000e+00 5.1399999999999997e+00
ITEM: ATOMS id type xs ys zs
2 2 0.368974 0.368977 0.361521
3 2 0.253646 0.253661 0.221427
1 3 0.767684 0.767674 0.789744
ITEM: TIMESTEP
720
ITEM: NUMBER OF ATOMS
3
ITEM: BOX BOUNDS pp pp pp
0.0000000000000000e+00 5.1399999999999997e+00
0.0000000000000000e+00 5.1399999999999997e+00
0.0000000000000000e+00 5.1399999999999997e+00
ITEM: ATOMS id type xs ys zs
2 2 0.368984 0.368988 0.361522
3 2 0.253656 0.253671 0.221429
1 3 0.767672 0.767662 0.789743
ITEM: TIMESTEP
730
ITEM: NUMBER OF ATOMS
3
ITEM: BOX BOUNDS pp pp pp
0.0000000000000000e+00 5.1399999999999997e+00
0.0000000000000000e+00 5.1399999999999997e+00
0.0000000000000000e+00 5.1399999999999997e+00
ITEM: ATOMS id type xs ys zs
2 2 0.368995 0.368999 0.361522
3 2 0.253667 0.253682 0.22143
1 3 0.76766 0.76765 0.789742
ITEM: TIMESTEP
740
ITEM: NUMBER OF ATOMS
3
ITEM: BOX BOUNDS pp pp pp
0.0000000000000000e+00 5.1399999999999997e+00
0.0000000000000000e+00 5.1399999999999997e+00
0.0000000000000000e+00 5.1399999999999997e+00
ITEM: ATOMS id type xs ys zs
2 2 0.369006 0.36901 0.361523
3 2 0.253677 0.253692 0.221432
1 3 0.767648 0.767638 0.789741
ITEM: TIMESTEP
750
ITEM: NUMBER OF ATOMS
3
ITEM: BOX BOUNDS pp pp pp
0.0000000000000000e+00 5.1399999999999997e+00
0.0000000000000000e+00 5.1399999999999997e+00
0.0000000000000000e+00 5.1399999999999997e+00
ITEM: ATOMS id type xs ys zs
2 2 0.369017 0.369021 0.361523
3 2 0.253687 0.253702 0.221433
1 3 0.767636 0.767626 0.78974
ITEM: TIMESTEP
760
ITEM: NUMBER OF ATOMS
3
ITEM: BOX BOUNDS pp pp pp
0.0000000000000000e+00 5.1399999999999997e+00
0.0000000000000000e+00 5.1399999999999997e+00
0.0000000000000000e+00 5.1399999999999997e+00
ITEM: ATOMS id type xs ys zs
2 2 0.369028 0.369032 0.361524
3 2 0.253698 0.253713 0.221435
1 3 0.767624 0.767613 0.789739
ITEM: TIMESTEP
770
ITEM: NUMBER OF ATOMS
3
ITEM: BOX BOUNDS pp pp pp
0.0000000000000000e+00 5.1399999999999997e+00
0.0000000000000000e+00 5.1399999999999997e+00
0.0000000000000000e+00 5.1399999999999997e+00
ITEM: ATOMS id type xs ys zs
2 2 0.36904 0.369043 0.361524
3 2 0.253708 0.253723 0.221436
1 3 0.767611 0.767601 0.789738
ITEM: TIMESTEP
780
ITEM: NUMBER OF ATOMS
3
ITEM: BOX BOUNDS pp pp pp
0.0000000000000000e+00 5.1399999999999997e+00
0.0000000000000000e+00 5.1399999999999997e+00
0.0000000000000000e+00 5.1399999999999997e+00
ITEM: ATOMS id type xs ys zs
2 2 0.369051 0.369054 0.361525
3 2 0.253719 0.253734 0.221438
1 3 0.767599 0.767588 0.789737
ITEM: TIMESTEP
790
ITEM: NUMBER OF ATOMS
3
ITEM: BOX BOUNDS pp pp pp
0.0000000000000000e+00 5.1399999999999997e+00
0.0000000000000000e+00 5.1399999999999997e+00
0.0000000000000000e+00 5.1399999999999997e+00
ITEM: ATOMS id type xs ys zs
2 2 0.369062 0.369066 0.361525
3 2 0.25373 0.253745 0.221439
1 3 0.767586 0.767576 0.789735
ITEM: TIMESTEP
800
ITEM: NUMBER OF ATOMS
3
ITEM: BOX BOUNDS pp pp pp
0.0000000000000000e+00 5.1399999999999997e+00
0.0000000000000000e+00 5.1399999999999997e+00
0.0000000000000000e+00 5.1399999999999997e+00
ITEM: ATOMS id type xs ys zs
2 2 0.369074 0.369077 0.361525
3 2 0.253741 0.253756 0.221441
1 3 0.767573 0.767563 0.789734
ITEM: TIMESTEP
810
ITEM: NUMBER OF ATOMS
3
ITEM: BOX BOUNDS pp pp pp
0.0000000000000000e+00 5.1399999999999997e+00
0.0000000000000000e+00 5.1399999999999997e+00
0.0000000000000000e+00 5.1399999999999997e+00
ITEM: ATOMS id type xs ys zs
2 2 0.369085 0.369089 0.361526
3 2 0.253751 0.253766 0.221443
1 3 0.76756 0.76755 0.789733
ITEM: TIMESTEP
820
ITEM: NUMBER OF ATOMS
3
ITEM: BOX BOUNDS pp pp pp
0.0000000000000000e+00 5.1399999999999997e+00
0.0000000000000000e+00 5.1399999999999997e+00
0.0000000000000000e+00 5.1399999999999997e+00
ITEM: ATOMS id type xs ys zs
2 2 0.369097 0.369101 0.361526
3 2 0.253763 0.253777 0.221444
1 3 0.767548 0.767537 0.789732
ITEM: TIMESTEP
830
ITEM: NUMBER OF ATOMS
3
ITEM: BOX BOUNDS pp pp pp
0.0000000000000000e+00 5.1399999999999997e+00
0.0000000000000000e+00 5.1399999999999997e+00
0.0000000000000000e+00 5.1399999999999997e+00
ITEM: ATOMS id type xs ys zs
2 2 0.369109 0.369112 0.361527
3 2 0.253774 0.253789 0.221446
1 3 0.767534 0.767524 0.789731
ITEM: TIMESTEP
840
ITEM: NUMBER OF ATOMS
3
ITEM: BOX BOUNDS pp pp pp
0.0000000000000000e+00 5.1399999999999997e+00
0.0000000000000000e+00 5.1399999999999997e+00
0.0000000000000000e+00 5.1399999999999997e+00
ITEM: ATOMS id type xs ys zs
2 2 0.369121 0.369124 0.361527
3 2 0.253785 0.2538 0.221447
1 3 0.767521 0.767511 0.78973
ITEM: TIMESTEP
850
ITEM: NUMBER OF ATOMS
3
ITEM: BOX BOUNDS pp pp pp
0.0000000000000000e+00 5.1399999999999997e+00
0.0000000000000000e+00 5.1399999999999997e+00
0.0000000000000000e+00 5.1399999999999997e+00
ITEM: ATOMS id type xs ys zs
2 2 0.369133 0.369136 0.361528
3 2 0.253796 0.253811 0.221449
1 3 0.767508 0.767498 0.789728
ITEM: TIMESTEP
860
ITEM: NUMBER OF ATOMS
3
ITEM: BOX BOUNDS pp pp pp
0.0000000000000000e+00 5.1399999999999997e+00
0.0000000000000000e+00 5.1399999999999997e+00
0.0000000000000000e+00 5.1399999999999997e+00
ITEM: ATOMS id type xs ys zs
2 2 0.369145 0.369148 0.361528
3 2 0.253807 0.253822 0.221451
1 3 0.767495 0.767485 0.789727
ITEM: TIMESTEP
870
ITEM: NUMBER OF ATOMS
3
ITEM: BOX BOUNDS pp pp pp
0.0000000000000000e+00 5.1399999999999997e+00
0.0000000000000000e+00 5.1399999999999997e+00
0.0000000000000000e+00 5.1399999999999997e+00
ITEM: ATOMS id type xs ys zs
2 2 0.369157 0.36916 0.361529
3 2 0.253819 0.253834 0.221452
1 3 0.767481 0.767471 0.789726
ITEM: TIMESTEP
880
ITEM: NUMBER OF ATOMS
3
ITEM: BOX BOUNDS pp pp pp
0.0000000000000000e+00 5.1399999999999997e+00
0.0000000000000000e+00 5.1399999999999997e+00
0.0000000000000000e+00 5.1399999999999997e+00
ITEM: ATOMS id type xs ys zs
2 2 0.369169 0.369173 0.361529
3 2 0.25383 0.253845 0.221454
1 3 0.767468 0.767458 0.789725
ITEM: TIMESTEP
890
ITEM: NUMBER OF ATOMS
3
ITEM: BOX BOUNDS pp pp pp
0.0000000000000000e+00 5.1399999999999997e+00
0.0000000000000000e+00 5.1399999999999997e+00
0.0000000000000000e+00 5.1399999999999997e+00
ITEM: ATOMS id type xs ys zs
2 2 0.369182 0.369185 0.36153
3 2 0.253842 0.253857 0.221456
1 3 0.767454 0.767444 0.789723
ITEM: TIMESTEP
900
ITEM: NUMBER OF ATOMS
3
ITEM: BOX BOUNDS pp pp pp
0.0000000000000000e+00 5.1399999999999997e+00
0.0000000000000000e+00 5.1399999999999997e+00
0.0000000000000000e+00 5.1399999999999997e+00
ITEM: ATOMS id type xs ys zs
2 2 0.369194 0.369197 0.36153
3 2 0.253854 0.253869 0.221457
1 3 0.76744 0.76743 0.789722
ITEM: TIMESTEP
910
ITEM: NUMBER OF ATOMS
3
ITEM: BOX BOUNDS pp pp pp
0.0000000000000000e+00 5.1399999999999997e+00
0.0000000000000000e+00 5.1399999999999997e+00