ITEM: TIMESTEP
0
ITEM: NUMBER OF ATOMS
71
ITEM: BOX BOUNDS pp pp pp
0.0      9.8299323600000008  xlo xhi
0.0      8.5129711412427191  ylo yhi
0.0      10.862602280000001  zlo zhi
ITEM: ATOMS id type xs ys zs
     1   1            0.3193749025      6.7680866802999997           10.2324042315
     2   1           -3.5635405137      7.3639389556000001      7.8719340193000003
     3   1           -1.1060593506      5.4055191208000002      6.6115326527000002
     4   1     0.78667846220000004      4.8523391117000001      8.4219685135999995
     5   1      5.7016501399999999      4.8523411089000001      8.4219717645000003
     6   1      5.2343465545000001      1.7448840646999999      4.2510696272999997
     7   1      5.7016475488999996      3.6606301191999999     0.63019804850000005
     8   1      3.8089097073999998      3.1074530886999998            2.4406337664
     9   1            6.2663920997      1.1490285255999999      1.1802356703000001
    10   1      8.1591284644000002     0.59585286559999995      2.9906682607000001
    11   1      7.6918223260999996      2.5116015268999998      4.8011040959000004
    12   1      5.2343449263000004      1.7448846579999999      9.6823687778000007
    13   1      5.7016505012999996            3.6606295025      6.0614961868000004
    14   1           -1.6708004366      7.9171142992999997      6.0614981841000004
    15   1      3.8089111079000002      3.1074571146999999      7.8719314871000003
    16   1      8.1591261426999999     0.59585156049999999      8.4219661816000002
    17   1            7.6918245856            2.5116009496      10.232403851600001
    18   1            2.7768577343            6.0013711104      4.2510663258000001
    19   1            3.2441608708            7.9171193485     0.63020214610000003
    20   1      1.3514255981000001      7.3639444191000001      2.4406305155000001
    21   1      3.8089102473000001      5.4055147677999997      1.1802369586000001
    22   1      5.7016490802000002      4.8523424136999997      2.9906710096000002
    23   1      5.2343452318999999      6.7680859147000003      4.8011005712000001
    24   1            2.7768579857      6.0013704187999997      9.6823653214000007
    25   1      3.2441617211999998      7.9171189004000002      6.0615017087999998
    26   1            1.3514272581      7.3639441537000003      7.8719312704000002
    27   1      3.8089109719000001      5.4055148957999997      6.6115359541999998
    28   1      6.2663909380999998      1.1490312782000001            6.6115344103
    29   1           -2.1381081571      6.0013690112000004      9.6823666097000007
    30   1      5.2343460450999997      6.7680854022999997      10.232400133900001
    31   1     -1.1060583400999999      3.1074551995999999      7.8719326357000003
    32   1      1.3514305447999999      1.1490233007999999      1.1802398924999999
    33   1            -1.106057863      3.1074516932999998            2.4406367621
    34   1      2.7768658500000001      2.5115996975999999           10.2323988589
    35   1      1.3514274344999999            1.1490276089      6.6115366096999999
    36   1     0.78667944469999995      3.6606334111000001      6.0615018306000001
    37   1     -2.1381051923999999            6.0013693815      4.2510678696999999
    38   1      3.2441643140999998     0.59585297930000003            2.9906696443
    39   1     -1.6708020663000001            7.9171159675     0.63019842839999995
    40   1     0.31937338170000001            1.7448842941            4.2510656703
    41   1            0.3193680955            1.7448848337      9.6823623874999996
    42   1     -3.5635404831000002            7.3639362924      2.4406360984000002
    43   1     -1.1060580227000001      5.4055180074000004      1.1802335021999999
    44   1     0.78668124859999999      4.8523423374999997            2.9906707929
    45   1     0.31937289229999999      6.7680889288000001      4.8011060931999996
    46   1     0.78667621730000004            3.6606362179     0.63020342110000005
    47   1      3.2441610390000002     0.59585163929999996      8.4219655179000004
    48   2            1.3062286475      2.2624543838000002      5.4313011400000004
    49   2             1.306230966      6.2505148784999998      9.0521714362000001
    50   2     -1.1512478564999999      1.9940345930000001      9.0521724862999999
    51   2      4.7599892426999997      4.2564859416000003      7.2417349681000003
    52   2            2.3025085418  7.4066999999999997e-06            1.8104297937
    53   2     -1.1512500857000001            1.9940337301      3.6208654141999999
    54   2      3.7637097070999999      6.5189364376999999      5.4313011400000004
    55   2      4.7599891884999996      4.2564866390000002      1.8104308438000001
    56   2      6.2211922553000001            6.2505165027      9.0521699658999992
    57   2      3.7637095655000001            6.5189361925                       0
    58   2      2.3025089091000002  5.0447000000000002e-06      7.2417368658000001
    59   2    -0.15496872349999999      4.2564832692000003      7.2417357194000003
    60   2      2.3025116938000001      8.5129683789000001      7.2417365195999999
    61   2      3.7637061043000002             1.994036908      9.0521735652000004
    62   2            6.2211935313      2.2624555055000002      5.4313000221000003
    63   2     -1.1512525897000001      6.5189384933000003  1.8563999999999999e-06
    64   2            6.2211910309      6.2505178087999997      3.6208657604000001
    65   2           -0.1549664338      4.2564835526999998            1.8104287148
    66   2      2.3025099505000002      8.5129687862000001      1.8104323141000001
    67   2            3.7637070037      1.9940347833000001      3.6208665606000001
    68   2      6.2211926356999996      2.2624552579000001           10.8626004236
    69   2     -1.1512528230000001      6.5189393927000001      5.4313022578999997
    70   2             1.306230335      6.2505145766999997      3.6208673119000001
    71   2      1.3062286887000001      2.2624544551999999                       0
