ITEM: TIMESTEP
0
ITEM: NUMBER OF ATOMS
71 
ITEM: BOX BOUNDS pp pp pp
0.0      9.7806179893701337  xlo xhi
0.0      8.5738804358844369  ylo yhi
0.0      10.826343498746111  zlo zhi
ITEM: ATOMS id type xs ys zs
     1   1     0.49686614480852176      6.7751572408083112      10.202102167326887
     2   1      -3.440182011056435      7.4906462154060645      7.8500785224453979
     3   1    -0.92078603942476012      5.3380321744902544      6.5029123723906954
     4   1     0.98633706221696027      4.8860754986142094      8.3232868956026849
     5   1      5.7829334406715356      4.9649100898579226      8.4197690229915043
     6   1      4.9547766021679003      1.8703653633816397      4.4893110214476959
     7   1      5.5427208151475469      3.5942742177084437     0.70887572519501496
     8   1      3.6500482233993692      3.2505315897173226      2.6466281311677986
     9   1       6.272161685937502      1.1489310103219148      1.1704586193783637
    10   1      8.1989985701823844     0.58906277881316971      2.9399795662187769
    11   1      7.5911447058207191      2.4501736372032497      4.7055320720411791
    12   1      5.3803533622280941      1.7777503448475152      9.6331242475763688
    13   1      5.8300969473530877      3.7629771879886156      6.0921684400908402
    14   1     -1.5051088799011554      7.8865958434775161      6.0806105258254348
    15   1      3.9403633867709895      3.1421064731074733      7.8385762505795853
    16   1      8.2352586480962859     0.63266101881392212      8.3931583523135291
    17   1      7.7934449332184546      2.6026285209193678      10.160927508369353
    18   1      2.8788444090286558      6.0384003052274817      4.2116817816532581
    19   1      3.2318227374223514      7.9673805997399949     0.58205073163503329
    20   1      1.4032487344469351      7.4030518969723182      2.4165355119353569
    21   1       3.763751002207417      5.4534963301055122      1.2159728627873654
    22   1      5.6835841435116867       4.890391084588277      2.9984247472417347
    23   1      5.3219654315706428      6.8067608116125031      4.8232198814229816
    24   1      2.9462752930270684      6.0457869464303888      9.6340064884665644
    25   1      3.2929716068000268      7.9995790237747215      6.0151478138000272
    26   1      1.4808333454883829      7.4259833733098564      7.8557249308036612
    27   1      3.8674896518106525      5.4705959010784797      6.6093655400320737
    28   1      6.3033250851454969      1.1964882499234113      6.6404323313868083
    29   1     -1.9620465650274623      6.1254446610194595      9.6346190291864016
    30   1      5.3885209079747316      6.8311097411704269       10.24626296751298
    31   1    -0.83533012582828992      3.0753552970891551      7.7630251429807817
    32   1      1.3229031384949357      1.1569826922148376      1.1737782226540618
    33   1     -1.0947855378394544      3.1427720588510621      2.4225910874604364
    34   1      2.9370349605719306      2.5310860340496633      10.215451848406857
    35   1      1.6249491172844683      1.1955486123089394      6.4552972179447314
    36   1      1.0844333777155453      3.6945651768505021      5.9413263856705356
    37   1     -2.0281176880252674      6.0454076903519036      4.2002883419005768
    38   1      3.1667779221235395     0.67928218722410116      3.0168528174231142
    39   1     -1.6320745276414612      7.9942179002277856     0.65987423681264068
    40   1     0.35735114305024313      1.8216085498450916      4.2172934141437874
    41   1     0.47157506277527539       1.776635134846861      9.6473593009397884
    42   1     -3.5134037365944666      7.3973736340781384      2.4290310567793245
    43   1     -1.1104743199950327      5.4624367490369714      1.1893008142836066
    44   1     0.82940909689448683      4.8854984138073032      2.9550906726345181
    45   1     0.44154216565572224      6.8046627639404029      4.7768800403787877
    46   1     0.76754409553834224      3.6911120395596737     0.59805469711248649
    47   1      3.3694854828047061     0.62874671441567298      8.3859314712477939
    48   2      1.5538203810580269       2.286276693998011      5.2321185721156702
    49   2       1.470497662697847      6.2770927625077313      9.0015356987544592
    50   2     -0.9901195855703907      2.0317156015100002      8.9975574169113237
    51   2      4.8523035098385119      4.3469541994646343      7.2473269003382867
    52   2      2.2838963875404974    0.021433652723467315      1.8215826617634958
    53   2     -1.1179067359462689      2.0034490802727118      3.5804979563896913
    54   2      3.8308583699832028      6.5870255023024766      5.4205539073758722
    55   2      4.6596733211342238      4.2795146048263328      1.8915414871850482
    56   2       6.337375758551266      6.3625130273607002      9.0232925896215974
    57   2      3.7429422582373357       6.544537407070913    0.010844935113109066
    58   2      2.4502768159892123    0.016819546503116518      7.1949270977564339
    59   2    0.096144540362758171      4.2409581594217842      7.1264764360185913
    60   2       2.384748766943301      8.6105127423975194      7.2251200889698532
    61   2      3.9051589640852407      2.0200520200581962      9.0157685416914806
    62   2      6.1746685350976387      2.3094812298270897      5.4637272746794556
    63   2     -1.1446151112165059      6.5866324217763506    0.012359351742387968
    64   2      6.2606627419319141      6.2771736531852875      3.6044308361618387
    65   2    -0.15257533762561776      4.3007616969596008      1.7927940579496242
    66   2      2.3348098960812274      8.5690061144158847      1.7857647768328402
    67   2      3.4938061878565052      2.0856989671743484      3.7917034840018218
    68   2      6.3400974678172242      2.3006487959578843      10.835796926578439
    69   2     -1.0239221773160194      6.5110612417166793      5.3916887761653687
    70   2      1.3965877187548563       6.273169508454731      3.5818912458188406
    71   2      1.2903641390707314      2.2779600525130133 -0.00072405481876165062
