# SiO2 alpha quartz 

    9  atoms
    3  atom types

0 4.913400 xlo xhi
0 4.255129 ylo yhi
0 5.405200 zlo zhi

Masses

    1 28.0855
    2 15.9994
    3 1.008

Atoms # charge

    1    1    1.4208288584729922 2.308807 0.000000 3.603467 0 0 0
    2    1    1.4208288584729922 -1.154403 1.999485 1.801733 0 0 0
    3    1    1.4208288584729922 -1.154403 -1.999485 0.000000 0 0 0
    4    2    -0.7104144285135959 1.375998 1.140800 4.245244 0 0 0
    5    2    -0.7104144285135959 -1.675961 0.621249 7.848711 0 0 0
    6    2    -0.7104144285135959 0.299963 -1.762049 6.046977 0 0 0
    7    2    -0.7104144285135959 0.299963 1.762049 -4.245244 0 0 0
    8    2    -0.7104144285135959 -1.675961 -0.621249 -0.64177 0 0 0
    9    2    -0.7104144285135959 1.375998 -1.140800 -2.443511 0 0 0
