ITEM: TIMESTEP
0
ITEM: NUMBER OF ATOMS
9
ITEM: BOX BOUNDS pp pp pp
-2.3158774925549999e+01 2.8305169353449998e+01
-2.3158774925549999e+01 2.8305169353449998e+01
-2.3158774925549999e+01 2.8305169353449998e+01
ITEM: ATOMS id type xs ys zs
7 2 0.455829 0.484239 0.46751
2 1 0.527569 0.488852 0.48501
6 2 0.455829 0.515761 0.467499
3 1 0.527569 0.511148 0.45
1 1 0.494863 0.45 0.520019
4 2 0.476737 0.472167 0.53249
5 2 0.517434 0.462072 0.502509
9 2 0.476737 0.527833 0.50252
8 2 0.517434 0.537928 0.53753
ITEM: TIMESTEP
10
ITEM: NUMBER OF ATOMS
6
ITEM: BOX BOUNDS pp pp pp
-2.3158774925549999e+01 2.8305169353449998e+01
-2.3158774925549999e+01 2.8305169353449998e+01
-2.3158774925549999e+01 2.8305169353449998e+01
ITEM: ATOMS id type xs ys zs
5 2 0.460414 0.387845 0.542947
2 1 0.548633 0.455487 0.481236
8 2 0.517438 0.53793 0.537533
3 1 0.527723 0.491838 0.467003
1 1 0.62932 0.62585 0.38532
4 2 0.445078 0.476227 0.561247
ITEM: TIMESTEP
20
ITEM: NUMBER OF ATOMS
6
ITEM: BOX BOUNDS pp pp pp
-2.3158774925549999e+01 2.8305169353449998e+01
-2.3158774925549999e+01 2.8305169353449998e+01
-2.3158774925549999e+01 2.8305169353449998e+01
ITEM: ATOMS id type xs ys zs
5 2 0.397619 0.284451 0.589432
2 1 0.567274 0.440901 0.456446
8 2 0.517441 0.537931 0.537536
3 1 0.542703 0.442051 0.501503
1 1 0.789805 0.853566 0.219385
4 2 0.397303 0.486571 0.603754
ITEM: TIMESTEP
30
ITEM: NUMBER OF ATOMS
6
ITEM: BOX BOUNDS pp pp pp
-2.3158774925549999e+01 2.8305169353449998e+01
-2.3158774925549999e+01 2.8305169353449998e+01
-2.3158774925549999e+01 2.8305169353449998e+01
ITEM: ATOMS id type xs ys zs
5 2 0.334823 0.181058 0.635917
2 1 0.561591 0.426299 0.477978
8 2 0.517444 0.537932 0.537539
3 1 0.582008 0.39228 0.489683
1 1 0.950289 0.0812822 0.0534508
4 2 0.349528 0.496916 0.646261
ITEM: TIMESTEP
40
ITEM: NUMBER OF ATOMS
6
ITEM: BOX BOUNDS pp pp pp
-2.3158774925549999e+01 2.8305169353449998e+01
-2.3158774925549999e+01 2.8305169353449998e+01
-2.3158774925549999e+01 2.8305169353449998e+01
ITEM: ATOMS id type xs ys zs
5 2 0.272027 0.0776642 0.682402
2 1 0.578439 0.381036 0.502199
8 2 0.517448 0.537933 0.537542
3 1 0.598781 0.373171 0.475173
1 1 0.110773 0.308998 0.887516
4 2 0.301753 0.50726 0.688768
ITEM: TIMESTEP
50
ITEM: NUMBER OF ATOMS
6
ITEM: BOX BOUNDS pp pp pp
-2.3158774925549999e+01 2.8305169353449998e+01
-2.3158774925549999e+01 2.8305169353449998e+01
-2.3158774925549999e+01 2.8305169353449998e+01
ITEM: ATOMS id type xs ys zs
5 2 0.209232 0.974271 0.728887
2 1 0.611043 0.328123 0.507803
8 2 0.517451 0.537934 0.537545
3 1 0.599798 0.361712 0.47928
1 1 0.271257 0.536715 0.721582
4 2 0.253979 0.517605 0.731275
ITEM: TIMESTEP
60
ITEM: NUMBER OF ATOMS
6
ITEM: BOX BOUNDS pp pp pp
-2.3158774925549999e+01 2.8305169353449998e+01
-2.3158774925549999e+01 2.8305169353449998e+01
-2.3158774925549999e+01 2.8305169353449998e+01
ITEM: ATOMS id type xs ys zs
5 2 0.146436 0.870877 0.775372
2 1 0.638238 0.304378 0.480348
8 2 0.517454 0.537935 0.537547
3 1 0.606225 0.321084 0.516446
1 1 0.405098 0.734964 0.570592
4 2 0.221381 0.544735 0.765269
ITEM: TIMESTEP
70
ITEM: NUMBER OF ATOMS
6
ITEM: BOX BOUNDS pp pp pp
-2.3158774925549999e+01 2.8305169353449998e+01
-2.3158774925549999e+01 2.8305169353449998e+01
-2.3158774925549999e+01 2.8305169353449998e+01
ITEM: ATOMS id type xs ys zs
5 2 0.0836402 0.767484 0.821857
2 1 0.633618 0.295636 0.491147
8 2 0.517458 0.537936 0.53755
3 1 0.644467 0.265454 0.515359
1 1 0.53894 0.933214 0.419602
4 2 0.188783 0.571865 0.799263
ITEM: TIMESTEP
80
ITEM: NUMBER OF ATOMS
6
ITEM: BOX BOUNDS pp pp pp
-2.3158774925549999e+01 2.8305169353449998e+01
-2.3158774925549999e+01 2.8305169353449998e+01
-2.3158774925549999e+01 2.8305169353449998e+01
ITEM: ATOMS id type xs ys zs
5 2 0.0208446 0.66409 0.868343
2 1 0.643917 0.257611 0.517074
8 2 0.517461 0.537937 0.537553
3 1 0.667789 0.239107 0.499143
1 1 0.672782 0.131464 0.268612
4 2 0.156185 0.598994 0.833257
ITEM: TIMESTEP
90
ITEM: NUMBER OF ATOMS
6
ITEM: BOX BOUNDS pp pp pp
-2.3158774925549999e+01 2.8305169353449998e+01
-2.3158774925549999e+01 2.8305169353449998e+01
-2.3158774925549999e+01 2.8305169353449998e+01
ITEM: ATOMS id type xs ys zs
5 2 0.958049 0.560696 0.914828
2 1 0.672346 0.203444 0.532487
8 2 0.517464 0.537938 0.537556
3 1 0.672981 0.228901 0.493441
1 1 0.806623 0.329713 0.117622
4 2 0.123586 0.626124 0.867251
ITEM: TIMESTEP
100
ITEM: NUMBER OF ATOMS
6
ITEM: BOX BOUNDS pp pp pp
-2.3158774925549999e+01 2.8305169353449998e+01
-2.3158774925549999e+01 2.8305169353449998e+01
-2.3158774925549999e+01 2.8305169353449998e+01
ITEM: ATOMS id type xs ys zs
5 2 0.895253 0.457303 0.961313
2 1 0.706814 0.169176 0.506832
8 2 0.517468 0.53794 0.537559
3 1 0.672135 0.198797 0.528807
1 1 0.940465 0.527963 0.966632
4 2 0.0909883 0.653254 0.901245
ITEM: TIMESTEP
110
ITEM: NUMBER OF ATOMS
6
ITEM: BOX BOUNDS pp pp pp
-2.3158774925549999e+01 2.8305169353449998e+01
-2.3158774925549999e+01 2.8305169353449998e+01
-2.3158774925549999e+01 2.8305169353449998e+01
ITEM: ATOMS id type xs ys zs
5 2 0.832458 0.353909 0.00779758
2 1 0.706245 0.162738 0.506495
8 2 0.517471 0.537941 0.537562
3 1 0.706325 0.140863 0.538855
1 1 0.0743067 0.726213 0.815642
4 2 0.0583901 0.680383 0.935239
ITEM: TIMESTEP
120
ITEM: NUMBER OF ATOMS
6
ITEM: BOX BOUNDS pp pp pp
-2.3158774925549999e+01 2.8305169353449998e+01
-2.3158774925549999e+01 2.8305169353449998e+01
-2.3158774925549999e+01 2.8305169353449998e+01
ITEM: ATOMS id type xs ys zs
5 2 0.769662 0.250516 0.0542826
2 1 0.711357 0.132759 0.530336
8 2 0.517474 0.537942 0.537565
3 1 0.734835 0.106469 0.524726
1 1 0.208148 0.924463 0.664652
4 2 0.025792 0.707513 0.969233
ITEM: TIMESTEP
130
ITEM: NUMBER OF ATOMS
6
ITEM: BOX BOUNDS pp pp pp
-2.3158774925549999e+01 2.8305169353449998e+01
-2.3158774925549999e+01 2.8305169353449998e+01
-2.3158774925549999e+01 2.8305169353449998e+01
ITEM: ATOMS id type xs ys zs
5 2 0.706866 0.147122 0.100768
2 1 0.733437 0.0809116 0.554385
8 2 0.517478 0.537943 0.537568
3 1 0.746376 0.0939445 0.510387
1 1 0.34199 0.122713 0.513661
4 2 0.993194 0.734643 0.00322693
ITEM: TIMESTEP
140
ITEM: NUMBER OF ATOMS
6
ITEM: BOX BOUNDS pp pp pp
-2.3158774925549999e+01 2.8305169353449998e+01
-2.3158774925549999e+01 2.8305169353449998e+01
-2.3158774925549999e+01 2.8305169353449998e+01
ITEM: ATOMS id type xs ys zs
5 2 0.644071 0.0437287 0.147253
2 1 0.772829 0.0362587 0.534792
8 2 0.517481 0.537944 0.537571
3 1 0.740605 0.0742251 0.539691
1 1 0.475832 0.320963 0.362671
4 2 0.960596 0.761772 0.037221
ITEM: TIMESTEP
150
ITEM: NUMBER OF ATOMS
6
ITEM: BOX BOUNDS pp pp pp
-2.3158774925549999e+01 2.8305169353449998e+01
-2.3158774925549999e+01 2.8305169353449998e+01
-2.3158774925549999e+01 2.8305169353449998e+01
ITEM: ATOMS id type xs ys zs
5 2 0.581275 0.940335 0.193738
2 1 0.778622 0.0283307 0.524562
8 2 0.517485 0.537945 0.537574
3 1 0.768434 0.0177808 0.559633
1 1 0.609673 0.519213 0.211681
4 2 0.927998 0.788902 0.071215
ITEM: TIMESTEP
160
ITEM: NUMBER OF ATOMS
6
ITEM: BOX BOUNDS pp pp pp
-2.3158774925549999e+01 2.8305169353449998e+01
-2.3158774925549999e+01 2.8305169353449998e+01
-2.3158774925549999e+01 2.8305169353449998e+01
ITEM: ATOMS id type xs ys zs
5 2 0.518479 0.836942 0.240223
2 1 0.78077 0.00582584 0.542934
8 2 0.517488 0.537946 0.537577
3 1 0.799907 0.975913 0.550972
1 1 0.743515 0.717463 0.0606911
4 2 0.895399 0.816032 0.105209
ITEM: TIMESTEP
170
ITEM: NUMBER OF ATOMS
6
ITEM: BOX BOUNDS pp pp pp
-2.3158774925549999e+01 2.8305169353449998e+01
-2.3158774925549999e+01 2.8305169353449998e+01
-2.3158774925549999e+01 2.8305169353449998e+01
ITEM: ATOMS id type xs ys zs
5 2 0.455684 0.733548 0.286708
2 1 0.795276 0.959623 0.57301
8 2 0.517491 0.537947 0.53758
3 1 0.819023 0.957743 0.530607
1 1 0.877357 0.915713 0.909701
4 2 0.862801 0.843162 0.139203
ITEM: TIMESTEP
180
ITEM: NUMBER OF ATOMS
6
ITEM: BOX BOUNDS pp pp pp
-2.3158774925549999e+01 2.8305169353449998e+01
-2.3158774925549999e+01 2.8305169353449998e+01
-2.3158774925549999e+01 2.8305169353449998e+01
ITEM: ATOMS id type xs ys zs
5 2 0.392888 0.630155 0.333193
2 1 0.836516 0.90622 0.562906
8 2 0.517495 0.537948 0.537583
3 1 0.811404 0.946774 0.550423
1 1 0.0111985 0.113963 0.758711
4 2 0.830203 0.870291 0.173197
ITEM: TIMESTEP
190
ITEM: NUMBER OF ATOMS
6
ITEM: BOX BOUNDS pp pp pp
-2.3158774925549999e+01 2.8305169353449998e+01
-2.3158774925549999e+01 2.8305169353449998e+01
-2.3158774925549999e+01 2.8305169353449998e+01
ITEM: ATOMS id type xs ys zs
5 2 0.330092 0.526761 0.379678
2 1 0.849966 0.893345 0.545456
8 2 0.517498 0.537949 0.537586
3 1 0.831577 0.895277 0.577583
1 1 0.14504 0.312212 0.607721
4 2 0.797605 0.897421 0.207191
ITEM: TIMESTEP
200
ITEM: NUMBER OF ATOMS
6
ITEM: BOX BOUNDS pp pp pp
-2.3158774925549999e+01 2.8305169353449998e+01
-2.3158774925549999e+01 2.8305169353449998e+01
-2.3158774925549999e+01 2.8305169353449998e+01
ITEM: ATOMS id type xs ys zs
5 2 0.267297 0.423367 0.426163
2 1 0.851864 0.876464 0.555945
8 2 0.517501 0.537951 0.537589
3 1 0.8633 0.847786 0.576806
1 1 0.278882 0.510462 0.456731
4 2 0.765007 0.924551 0.241185
ITEM: TIMESTEP
210
ITEM: NUMBER OF ATOMS
6
ITEM: BOX BOUNDS pp pp pp
-2.3158774925549999e+01 2.8305169353449998e+01
-2.3158774925549999e+01 2.8305169353449998e+01
-2.3158774925549999e+01 2.8305169353449998e+01
ITEM: ATOMS id type xs ys zs
5 2 0.204501 0.319974 0.472648
2 1 0.858733 0.83845 0.588385
8 2 0.517505 0.537952 0.537592
3 1 0.890052 0.821427 0.554077
1 1 0.412723 0.708712 0.305741
4 2 0.732409 0.95168 0.275179
ITEM: TIMESTEP
220
ITEM: NUMBER OF ATOMS
6
ITEM: BOX BOUNDS pp pp pp
-2.3158774925549999e+01 2.8305169353449998e+01
-2.3158774925549999e+01 2.8305169353449998e+01
-2.3158774925549999e+01 2.8305169353449998e+01
ITEM: ATOMS id type xs ys zs
5 2 0.141706 0.21658 0.519133
2 1 0.898467 0.779193 0.589848
8 2 0.517508 0.537953 0.537595
3 1 0.88394 0.816312 0.562325
1 1 0.546565 0.906962 0.15475
4 2 0.699811 0.97881 0.309173
ITEM: TIMESTEP
230
ITEM: NUMBER OF ATOMS
6
ITEM: BOX BOUNDS pp pp pp
-2.3158774925549999e+01 2.8305169353449998e+01
-2.3158774925549999e+01 2.8305169353449998e+01
-2.3158774925549999e+01 2.8305169353449998e+01
ITEM: ATOMS id type xs ys zs
5 2 0.0789099 0.113187 0.565618
2 1 0.919676 0.758767 0.568853
8 2 0.517511 0.537954 0.537597
3 1 0.896352 0.772366 0.593031
1 1 0.680407 0.105212 0.00376035
4 2 0.667212 0.0059398 0.343167
ITEM: TIMESTEP
240
ITEM: NUMBER OF ATOMS
6
ITEM: BOX BOUNDS pp pp pp
-2.3158774925549999e+01 2.8305169353449998e+01
-2.3158774925549999e+01 2.8305169353449998e+01
-2.3158774925549999e+01 2.8305169353449998e+01
ITEM: ATOMS id type xs ys zs
5 2 0.0161143 0.00979335 0.612103
2 1 0.924074 0.744695 0.570409
8 2 0.517515 0.537955 0.5376
3 1 0.925575 0.722066 0.601187
1 1 0.814248 0.303462 0.85277
4 2 0.634614 0.0330695 0.377161
ITEM: TIMESTEP
250
ITEM: NUMBER OF ATOMS
6
ITEM: BOX BOUNDS pp pp pp
-2.3158774925549999e+01 2.8305169353449998e+01
-2.3158774925549999e+01 2.8305169353449998e+01
-2.3158774925549999e+01 2.8305169353449998e+01
ITEM: ATOMS id type xs ys zs
5 2 0.953319 0.9064 0.658588
2 1 0.924441 0.716214 0.601055
8 2 0.517518 0.537956 0.537603
3 1 0.95883 0.686175 0.580252
1 1 0.94809 0.501712 0.70178
4 2 0.602016 0.0601992 0.411155
ITEM: TIMESTEP
260
ITEM: NUMBER OF ATOMS
6
ITEM: BOX BOUNDS pp pp pp
-2.3158774925549999e+01 2.8305169353449998e+01
-2.3158774925549999e+01 2.8305169353449998e+01
-2.3158774925549999e+01 2.8305169353449998e+01
ITEM: ATOMS id type xs ys zs
5 2 0.890523 0.803006 0.705073
2 1 0.959532 0.654835 0.614509
8 2 0.517521 0.537957 0.537606
3 1 0.95736 0.683181 0.576509
1 1 0.0819318 0.699962 0.55079
4 2 0.569418 0.0873289 0.44515
ITEM: TIMESTEP
270
ITEM: NUMBER OF ATOMS
6
ITEM: BOX BOUNDS pp pp pp
-2.3158774925549999e+01 2.8305169353449998e+01
-2.3158774925549999e+01 2.8305169353449998e+01
-2.3158774925549999e+01 2.8305169353449998e+01
ITEM: ATOMS id type xs ys zs
5 2 0.827727 0.699613 0.751558
2 1 0.987419 0.625491 0.594059
8 2 0.517525 0.537958 0.537609
3 1 0.963095 0.648152 0.606671
1 1 0.215774 0.898212 0.3998
4 2 0.53682 0.114459 0.479144
ITEM: TIMESTEP
280
ITEM: NUMBER OF ATOMS
6
ITEM: BOX BOUNDS pp pp pp
-2.3158774925549999e+01 2.8305169353449998e+01
-2.3158774925549999e+01 2.8305169353449998e+01
-2.3158774925549999e+01 2.8305169353449998e+01
ITEM: ATOMS id type xs ys zs
5 2 0.764932 0.596219 0.798043
2 1 0.996645 0.610915 0.587175
8 2 0.517528 0.537959 0.537612
3 1 0.987491 0.598356 0.623266
1 1 0.349615 0.0964614 0.24881
4 2 0.504222 0.141588 0.513138
ITEM: TIMESTEP
290
ITEM: NUMBER OF ATOMS
6
ITEM: BOX BOUNDS pp pp pp
-2.3158774925549999e+01 2.8305169353449998e+01
-2.3158774925549999e+01 2.8305169353449998e+01
-2.3158774925549999e+01 2.8305169353449998e+01
ITEM: ATOMS id type xs ys zs
5 2 0.702136 0.492826 0.844528
2 1 0.992688 0.59188 0.612009
8 2 0.517532 0.53796 0.537615
3 1 0.0250687 0.553018 0.608143
1 1 0.483457 0.294711 0.0978197
4 2 0.471624 0.168718 0.547132
ITEM: TIMESTEP
300
ITEM: NUMBER OF ATOMS
6
ITEM: BOX BOUNDS pp pp pp
-2.3158774925549999e+01 2.8305169353449998e+01
-2.3158774925549999e+01 2.8305169353449998e+01
-2.3158774925549999e+01 2.8305169353449998e+01
ITEM: ATOMS id type xs ys zs
5 2 0.63934 0.389432 0.891013
2 1 0.020678 0.532397 0.636162
8 2 0.517535 0.537962 0.537618
3 1 0.0307003 0.54813 0.593701
1 1 0.617299 0.492961 0.94683
4 2 0.439026 0.195848 0.581126
ITEM: TIMESTEP
310
ITEM: NUMBER OF ATOMS
6
ITEM: BOX BOUNDS pp pp pp
-2.3158774925549999e+01 2.8305169353449998e+01
-2.3158774925549999e+01 2.8305169353449998e+01
-2.3158774925549999e+01 2.8305169353449998e+01
ITEM: ATOMS id type xs ys zs
5 2 0.576545 0.286039 0.937498
2 1 0.0531669 0.494191 0.620124
8 2 0.517538 0.537963 0.537621
3 1 0.0318328 0.521963 0.61945
1 1 0.75114 0.691211 0.795839
4 2 0.406427 0.222977 0.61512
ITEM: TIMESTEP
320
ITEM: NUMBER OF ATOMS
6
ITEM: BOX BOUNDS pp pp pp
-2.3158774925549999e+01 2.8305169353449998e+01
-2.3158774925549999e+01 2.8305169353449998e+01
-2.3158774925549999e+01 2.8305169353449998e+01
ITEM: ATOMS id type xs ys zs
5 2 0.513749 0.182645 0.983983
2 1 0.0687364 0.475854 0.606757
8 2 0.517542 0.537964 0.537624
3 1 0.0498848 0.475927 0.642528
1 1 0.884982 0.889461 0.644849
4 2 0.373829 0.250107 0.649114
ITEM: TIMESTEP
330
ITEM: NUMBER OF ATOMS
6
ITEM: BOX BOUNDS pp pp pp
-2.3158774925549999e+01 2.8305169353449998e+01
-2.3158774925549999e+01 2.8305169353449998e+01
-2.3158774925549999e+01 2.8305169353449998e+01
ITEM: ATOMS id type xs ys zs
5 2 0.450953 0.0792515 0.0304682
2 1 0.0633618 0.464733 0.622527
8 2 0.517545 0.537965 0.537627
3 1 0.0888809 0.422676 0.636469
1 1 0.0188236 0.0877108 0.493859
4 2 0.341231 0.277237 0.683108
ITEM: TIMESTEP
340
ITEM: NUMBER OF ATOMS
6
ITEM: BOX BOUNDS pp pp pp
-2.3158774925549999e+01 2.8305169353449998e+01
-2.3158774925549999e+01 2.8305169353449998e+01
-2.3158774925549999e+01 2.8305169353449998e+01
ITEM: ATOMS id type xs ys zs
5 2 0.388158 0.975858 0.0769532
2 1 0.0828283 0.410853 0.654573
8 2 0.517548 0.537966 0.53763
3 1 0.103036 0.412184 0.614135
1 1 0.152665 0.285961 0.342869
4 2 0.308633 0.304367 0.717102
ITEM: TIMESTEP
350
ITEM: NUMBER OF ATOMS
6
ITEM: BOX BOUNDS pp pp pp
-2.3158774925549999e+01 2.8305169353449998e+01
-2.3158774925549999e+01 2.8305169353449998e+01
-2.3158774925549999e+01 2.8305169353449998e+01
ITEM: ATOMS id type xs ys zs
5 2 0.325362 0.872464 0.123438
2 1 0.117194 0.365229 0.645991
8 2 0.517552 0.537967 0.537633
3 1 0.102291 0.393436 0.632428
1 1 0.286507 0.484211 0.191879
4 2 0.276035 0.331496 0.751096
ITEM: TIMESTEP
360
ITEM: NUMBER OF ATOMS
6
ITEM: BOX BOUNDS pp pp pp
-2.3158774925549999e+01 2.8305169353449998e+01
-2.3158774925549999e+01 2.8305169353449998e+01
-2.3158774925549999e+01 2.8305169353449998e+01
ITEM: ATOMS id type xs ys zs
5 2 0.262567 0.769071 0.169923
2 1 0.139554 0.340468 0.629248
8 2 0.517555 0.537968 0.537636
3 1 0.113553 0.353824 0.658882
1 1 0.420349 0.68246 0.0408889
4 2 0.243437 0.358626 0.78509
ITEM: TIMESTEP
370
ITEM: NUMBER OF ATOMS
6
ITEM: BOX BOUNDS pp pp pp
-2.3158774925549999e+01 2.8305169353449998e+01
-2.3158774925549999e+01 2.8305169353449998e+01
-2.3158774925549999e+01 2.8305169353449998e+01
ITEM: ATOMS id type xs ys zs
5 2 0.199771 0.665677 0.216408
2 1 0.135964 0.334493 0.633973
8 2 0.517558 0.537969 0.537639
3 1 0.150765 0.295427 0.663869
1 1 0.55419 0.88071 0.889899
4 2 0.210839 0.385756 0.819084
ITEM: TIMESTEP
380
ITEM: NUMBER OF ATOMS
6
ITEM: BOX BOUNDS pp pp pp
-2.3158774925549999e+01 2.8305169353449998e+01
-2.3158774925549999e+01 2.8305169353449998e+01
-2.3158774925549999e+01 2.8305169353449998e+01
ITEM: ATOMS id type xs ys zs
5 2 0.136975 0.562284 0.262893
2 1 0.146719 0.289077 0.670017
8 2 0.517562 0.53797 0.537642
3 1 0.173631 0.27647 0.637535
1 1 0.688032 0.0789603 0.738909
4 2 0.17824 0.412885 0.853078
ITEM: TIMESTEP
390
ITEM: NUMBER OF ATOMS
6
ITEM: BOX BOUNDS pp pp pp
-2.3158774925549999e+01 2.8305169353449998e+01
-2.3158774925549999e+01 2.8305169353449998e+01
-2.3158774925549999e+01 2.8305169353449998e+01
ITEM: ATOMS id type xs ys zs
5 2 0.0741796 0.45889 0.309378
2 1 0.18003 0.238604 0.670649
8 2 0.517565 0.537972 0.537645
3 1 0.173941 0.262571 0.646614
1 1 0.821874 0.27721 0.587919
4 2 0.145642 0.440015 0.887072
ITEM: TIMESTEP
400
ITEM: NUMBER OF ATOMS
6
ITEM: BOX BOUNDS pp pp pp
-2.3158774925549999e+01 2.8305169353449998e+01
-2.3158774925549999e+01 2.8305169353449998e+01
-2.3158774925549999e+01 2.8305169353449998e+01
ITEM: ATOMS id type xs ys zs
5 2 0.011384 0.355497 0.355863
2 1 0.208473 0.205803 0.654281
8 2 0.517568 0.537973 0.537647
3 1 0.17912 0.231 0.672694
1 1 0.955715 0.47546 0.436929
4 2 0.113044 0.467145 0.921066
ITEM: TIMESTEP
410
ITEM: NUMBER OF ATOMS
6
ITEM: BOX BOUNDS pp pp pp
-2.3158774925549999e+01 2.8305169353449998e+01
-2.3158774925549999e+01 2.8305169353449998e+01
-2.3158774925549999e+01 2.8305169353449998e+01
ITEM: ATOMS id type xs ys zs
5 2 0.948588 0.252103 0.402348
2 1 0.209686 0.201368 0.647574
8 2 0.517572 0.537974 0.53765
3 1 0.211528 0.171063 0.689112
1 1 0.089557 0.67371 0.285938
4 2 0.0804461 0.494274 0.95506
ITEM: TIMESTEP
420
ITEM: NUMBER OF ATOMS
6
ITEM: BOX BOUNDS pp pp pp
-2.3158774925549999e+01 2.8305169353449998e+01
-2.3158774925549999e+01 2.8305169353449998e+01
-2.3158774925549999e+01 2.8305169353449998e+01
ITEM: ATOMS id type xs ys zs
5 2 0.885793 0.14871 0.448833
2 1 0.212792 0.166018 0.683217
8 2 0.517575 0.537975 0.537653
3 1 0.242044 0.142041 0.66318
1 1 0.223399 0.87196 0.134948
4 2 0.0478479 0.521404 0.989054
ITEM: TIMESTEP
430
ITEM: NUMBER OF ATOMS
6
ITEM: BOX BOUNDS pp pp pp
-2.3158774925549999e+01 2.8305169353449998e+01
-2.3158774925549999e+01 2.8305169353449998e+01
-2.3158774925549999e+01 2.8305169353449998e+01
ITEM: ATOMS id type xs ys zs
5 2 0.822997 0.0453162 0.495318
2 1 0.242378 0.113968 0.693282
8 2 0.517579 0.537976 0.537656
3 1 0.246079 0.129718 0.662826
1 1 0.35724 0.0702097 0.983958
4 2 0.0152498 0.548534 0.0230483
ITEM: TIMESTEP
440
ITEM: NUMBER OF ATOMS
6
ITEM: BOX BOUNDS pp pp pp
-2.3158774925549999e+01 2.8305169353449998e+01
-2.3158774925549999e+01 2.8305169353449998e+01
-2.3158774925549999e+01 2.8305169353449998e+01
ITEM: ATOMS id type xs ys zs
5 2 0.760201 0.941923 0.541803
2 1 0.275144 0.0728312 0.681073
8 2 0.517582 0.537977 0.537659
3 1 0.246935 0.106482 0.684746
1 1 0.491082 0.26846 0.832968
4 2 0.982652 0.575664 0.0570424
ITEM: TIMESTEP
450
ITEM: NUMBER OF ATOMS
6
ITEM: BOX BOUNDS pp pp pp
-2.3158774925549999e+01 2.8305169353449998e+01
-2.3158774925549999e+01 2.8305169353449998e+01
-2.3158774925549999e+01 2.8305169353449998e+01
ITEM: ATOMS id type xs ys zs
5 2 0.697406 0.838529 0.588288
2 1 0.283544 0.0660178 0.664225
8 2 0.517585 0.537978 0.537662
3 1 0.272157 0.0489235 0.711306
1 1 0.624924 0.466709 0.681978
4 2 0.950054 0.602793 0.0910364
ITEM: TIMESTEP
460
ITEM: NUMBER OF ATOMS
6
ITEM: BOX BOUNDS pp pp pp
-2.3158774925549999e+01 2.8305169353449998e+01
-2.3158774925549999e+01 2.8305169353449998e+01
-2.3158774925549999e+01 2.8305169353449998e+01
ITEM: ATOMS id type xs ys zs
5 2 0.63461 0.735136 0.634774
2 1 0.281134 0.0408617 0.695213
8 2 0.517589 0.537979 0.537665
3 1 0.308188 0.00970732 0.690029
1 1 0.758765 0.664959 0.530988
4 2 0.917455 0.629923 0.12503
ITEM: TIMESTEP
470
ITEM: NUMBER OF ATOMS
6
ITEM: BOX BOUNDS pp pp pp
-2.3158774925549999e+01 2.8305169353449998e+01
-2.3158774925549999e+01 2.8305169353449998e+01
-2.3158774925549999e+01 2.8305169353449998e+01
ITEM: ATOMS id type xs ys zs
5 2 0.571814 0.631742 0.681259
2 1 0.305013 0.990668 0.713381
8 2 0.517592 0.53798 0.537668
3 1 0.317931 0.995528 0.681572
1 1 0.892607 0.863209 0.379998
4 2 0.884857 0.657053 0.159025
ITEM: TIMESTEP
480
ITEM: NUMBER OF ATOMS
6
ITEM: BOX BOUNDS pp pp pp
-2.3158774925549999e+01 2.8305169353449998e+01
-2.3158774925549999e+01 2.8305169353449998e+01
-2.3158774925549999e+01 2.8305169353449998e+01
ITEM: ATOMS id type xs ys zs
5 2 0.509019 0.528349 0.727744
2 1 0.339563 0.942297 0.70853
8 2 0.517595 0.537981 0.537671
3 1 0.317001 0.979527 0.696134
1 1 0.0264487 0.0614591 0.229008
4 2 0.852259 0.684182 0.193019
ITEM: TIMESTEP
490
ITEM: NUMBER OF ATOMS
6
ITEM: BOX BOUNDS pp pp pp
-2.3158774925549999e+01 2.8305169353449998e+01
-2.3158774925549999e+01 2.8305169353449998e+01
-2.3158774925549999e+01 2.8305169353449998e+01
ITEM: ATOMS id type xs ys zs
5 2 0.446223 0.424955 0.774229
2 1 0.356528 0.929456 0.684339
8 2 0.517599 0.537983 0.537674
3 1 0.333658 0.927996 0.730036
1 1 0.16029 0.259709 0.0780175
4 2 0.819661 0.711312 0.227013
ITEM: TIMESTEP
500
ITEM: NUMBER OF ATOMS
6
ITEM: BOX BOUNDS pp pp pp
-2.3158774925549999e+01 2.8305169353449998e+01
-2.3158774925549999e+01 2.8305169353449998e+01
-2.3158774925549999e+01 2.8305169353449998e+01
ITEM: ATOMS id type xs ys zs
5 2 0.383428 0.321561 0.820714
2 1 0.351485 0.913148 0.707187
8 2 0.517602 0.537984 0.537677
3 1 0.372322 0.879931 0.7169
1 1 0.294132 0.457959 0.927027
4 2 0.787063 0.738442 0.261007
ITEM: TIMESTEP
510
ITEM: NUMBER OF ATOMS
6
ITEM: BOX BOUNDS pp pp pp
-2.3158774925549999e+01 2.8305169353449998e+01
-2.3158774925549999e+01 2.8305169353449998e+01
-2.3158774925549999e+01 2.8305169353449998e+01
ITEM: ATOMS id type xs ys zs
5 2 0.320632 0.218168 0.867199
2 1 0.368668 0.867852 0.73082
8 2 0.517605 0.537985 0.53768
3 1 0.388761 0.860855 0.702978
1 1 0.427974 0.656209 0.776037
4 2 0.754465 0.765572 0.295001
ITEM: TIMESTEP
520
ITEM: NUMBER OF ATOMS
6
ITEM: BOX BOUNDS pp pp pp
-2.3158774925549999e+01 2.8305169353449998e+01
-2.3158774925549999e+01 2.8305169353449998e+01
-2.3158774925549999e+01 2.8305169353449998e+01
ITEM: ATOMS id type xs ys zs
5 2 0.257836 0.114774 0.913684
2 1 0.402084 0.814584 0.735406
8 2 0.517609 0.537986 0.537683
3 1 0.388966 0.849751 0.708103
1 1 0.561815 0.854459 0.625047
4 2 0.721867 0.792701 0.328995
ITEM: TIMESTEP
530
ITEM: NUMBER OF ATOMS
6
ITEM: BOX BOUNDS pp pp pp
-2.3158774925549999e+01 2.8305169353449998e+01
-2.3158774925549999e+01 2.8305169353449998e+01
-2.3158774925549999e+01 2.8305169353449998e+01
ITEM: ATOMS id type xs ys zs
5 2 0.195041 0.0113809 0.960169
2 1 0.427773 0.792878 0.707788
8 2 0.517612 0.537987 0.537686
3 1 0.396899 0.807084 0.745433
1 1 0.695657 0.0527085 0.474057
4 2 0.689268 0.819831 0.362989
ITEM: TIMESTEP
540
ITEM: NUMBER OF ATOMS
6
ITEM: BOX BOUNDS pp pp pp
-2.3158774925549999e+01 2.8305169353449998e+01
-2.3158774925549999e+01 2.8305169353449998e+01
-2.3158774925549999e+01 2.8305169353449998e+01
ITEM: ATOMS id type xs ys zs
5 2 0.132245 0.907987 0.00665374
2 1 0.423287 0.782824 0.72028
8 2 0.517615 0.537988 0.537689
3 1 0.435006 0.752766 0.742652
1 1 0.829499 0.250958 0.323067
4 2 0.65667 0.846961 0.396983
ITEM: TIMESTEP
550
ITEM: NUMBER OF ATOMS
6
ITEM: BOX BOUNDS pp pp pp
-2.3158774925549999e+01 2.8305169353449998e+01
-2.3158774925549999e+01 2.8305169353449998e+01
-2.3158774925549999e+01 2.8305169353449998e+01
ITEM: ATOMS id type xs ys zs
5 2 0.0694493 0.804594 0.0531388
2 1 0.433931 0.74458 0.745877
8 2 0.517619 0.537989 0.537692
3 1 0.457984 0.726638 0.726765
1 1 0.96334 0.449208 0.172077
4 2 0.624072 0.87409 0.430977
ITEM: TIMESTEP
560
ITEM: NUMBER OF ATOMS
6
ITEM: BOX BOUNDS pp pp pp
-2.3158774925549999e+01 2.8305169353449998e+01
-2.3158774925549999e+01 2.8305169353449998e+01
-2.3158774925549999e+01 2.8305169353449998e+01
ITEM: ATOMS id type xs ys zs
5 2 0.00665366 0.7012 0.0996238
2 1 0.463379 0.689639 0.760503
8 2 0.517622 0.53799 0.537695
3 1 0.462158 0.717206 0.721851
1 1 0.0971821 0.647458 0.0210868
4 2 0.591474 0.90122 0.464971
ITEM: TIMESTEP
570
ITEM: NUMBER OF ATOMS
6
ITEM: BOX BOUNDS pp pp pp
-2.3158774925549999e+01 2.8305169353449998e+01
-2.3158774925549999e+01 2.8305169353449998e+01
-2.3158774925549999e+01 2.8305169353449998e+01
ITEM: ATOMS id type xs ys zs
5 2 0.943858 0.597807 0.146109
2 1 0.49669 0.657476 0.733918
8 2 0.517625 0.537991 0.537697
3 1 0.462468 0.684997 0.758147
1 1 0.231024 0.845708 0.870097
4 2 0.558876 0.92835 0.498965
ITEM: TIMESTEP
580
ITEM: NUMBER OF ATOMS
6
ITEM: BOX BOUNDS pp pp pp
-2.3158774925549999e+01 2.8305169353449998e+01
-2.3158774925549999e+01 2.8305169353449998e+01
-2.3158774925549999e+01 2.8305169353449998e+01
ITEM: ATOMS id type xs ys zs
5 2 0.881062 0.494413 0.192594
2 1 0.495783 0.650235 0.735419
8 2 0.517629 0.537992 0.5377
3 1 0.496997 0.627866 0.766357
1 1 0.364865 0.0439579 0.719107
4 2 0.526278 0.955479 0.532959
ITEM: TIMESTEP
590
ITEM: NUMBER OF ATOMS
6
ITEM: BOX BOUNDS pp pp pp
-2.3158774925549999e+01 2.8305169353449998e+01
-2.3158774925549999e+01 2.8305169353449998e+01
-2.3158774925549999e+01 2.8305169353449998e+01
ITEM: ATOMS id type xs ys zs
5 2 0.818267 0.39102 0.239079
2 1 0.501151 0.619968 0.759201
8 2 0.517632 0.537994 0.537703
3 1 0.52525 0.593761 0.752287
1 1 0.498707 0.242208 0.568116
4 2 0.49368 0.982609 0.566953
ITEM: TIMESTEP
600
ITEM: NUMBER OF ATOMS
6
ITEM: BOX BOUNDS pp pp pp
-2.3158774925549999e+01 2.8305169353449998e+01
-2.3158774925549999e+01 2.8305169353449998e+01
-2.3158774925549999e+01 2.8305169353449998e+01
ITEM: ATOMS id type xs ys zs
5 2 0.755471 0.287626 0.285564
2 1 0.524339 0.566964 0.782862
8 2 0.517636 0.537995 0.537706
3 1 0.535684 0.582393 0.738336
1 1 0.632549 0.440458 0.417126
4 2 0.461081 0.00973885 0.600947
ITEM: TIMESTEP
610
ITEM: NUMBER OF ATOMS
6
ITEM: BOX BOUNDS pp pp pp
-2.3158774925549999e+01 2.8305169353449998e+01
-2.3158774925549999e+01 2.8305169353449998e+01
-2.3158774925549999e+01 2.8305169353449998e+01
ITEM: ATOMS id type xs ys zs
5 2 0.692675 0.184233 0.332049
2 1 0.563066 0.524241 0.761667
8 2 0.517639 0.537996 0.537709
3 1 0.530578 0.560743 0.769243
1 1 0.76639 0.638708 0.266136
4 2 0.428483 0.0368686 0.634941
ITEM: TIMESTEP
620
ITEM: NUMBER OF ATOMS
6
ITEM: BOX BOUNDS pp pp pp
-2.3158774925549999e+01 2.8305169353449998e+01
-2.3158774925549999e+01 2.8305169353449998e+01
-2.3158774925549999e+01 2.8305169353449998e+01
ITEM: ATOMS id type xs ys zs
5 2 0.62988 0.080839 0.378534
2 1 0.568135 0.51606 0.753188
8 2 0.517642 0.537997 0.537712
3 1 0.55913 0.504552 0.787433
1 1 0.900232 0.836957 0.115146
4 2 0.395885 0.0639983 0.668935
ITEM: TIMESTEP
630
ITEM: NUMBER OF ATOMS
6
ITEM: BOX BOUNDS pp pp pp
-2.3158774925549999e+01 2.8305169353449998e+01
-2.3158774925549999e+01 2.8305169353449998e+01
-2.3158774925549999e+01 2.8305169353449998e+01
ITEM: ATOMS id type xs ys zs
5 2 0.567084 0.977446 0.425019
2 1 0.570384 0.493318 0.771722
8 2 0.517646 0.537998 0.537715
3 1 0.590503 0.462921 0.77861
1 1 0.0340738 0.0352073 0.964156
4 2 0.363287 0.091128 0.702929
ITEM: TIMESTEP
640
ITEM: NUMBER OF ATOMS
6
ITEM: BOX BOUNDS pp pp pp
-2.3158774925549999e+01 2.8305169353449998e+01
-2.3158774925549999e+01 2.8305169353449998e+01
-2.3158774925549999e+01 2.8305169353449998e+01
ITEM: ATOMS id type xs ys zs
5 2 0.504289 0.874052 0.471504
2 1 0.585939 0.445678 0.801938
8 2 0.517649 0.537999 0.537718
3 1 0.608569 0.446189 0.758106
1 1 0.167915 0.233457 0.813166
4 2 0.330689 0.118258 0.736923
ITEM: TIMESTEP
650
ITEM: NUMBER OF ATOMS
6
ITEM: BOX BOUNDS pp pp pp
-2.3158774925549999e+01 2.8305169353449998e+01
-2.3158774925549999e+01 2.8305169353449998e+01
-2.3158774925549999e+01 2.8305169353449998e+01
ITEM: ATOMS id type xs ys zs
5 2 0.441493 0.770658 0.517989
2 1 0.627085 0.393808 0.789733
8 2 0.517652 0.538 0.537721
3 1 0.601045 0.433686 0.780021
1 1 0.301757 0.431707 0.662176
4 2 0.298091 0.145387 0.770917
ITEM: TIMESTEP
660
ITEM: NUMBER OF ATOMS
6
ITEM: BOX BOUNDS pp pp pp
-2.3158774925549999e+01 2.8305169353449998e+01
-2.3158774925549999e+01 2.8305169353449998e+01
-2.3158774925549999e+01 2.8305169353449998e+01
ITEM: ATOMS id type xs ys zs
5 2 0.378697 0.667265 0.564474
2 1 0.639559 0.381194 0.773752
8 2 0.517656 0.538001 0.537724
3 1 0.622192 0.381929 0.805714
1 1 0.435599 0.629957 0.511186
4 2 0.265493 0.172517 0.804911
ITEM: TIMESTEP
670
ITEM: NUMBER OF ATOMS
6
ITEM: BOX BOUNDS pp pp pp
-2.3158774925549999e+01 2.8305169353449998e+01
-2.3158774925549999e+01 2.8305169353449998e+01
-2.3158774925549999e+01 2.8305169353449998e+01
ITEM: ATOMS id type xs ys zs
5 2 0.315902 0.563871 0.610959
2 1 0.641373 0.364231 0.784523
8 2 0.517659 0.538002 0.537727
3 1 0.654 0.334519 0.804655
1 1 0.56944 0.828207 0.360196
4 2 0.232895 0.199647 0.838905
ITEM: TIMESTEP
680
ITEM: NUMBER OF ATOMS
6
ITEM: BOX BOUNDS pp pp pp
-2.3158774925549999e+01 2.8305169353449998e+01
-2.3158774925549999e+01 2.8305169353449998e+01
-2.3158774925549999e+01 2.8305169353449998e+01
ITEM: ATOMS id type xs ys zs
5 2 0.253106 0.460478 0.657444
2 1 0.649078 0.324655 0.817693
8 2 0.517662 0.538003 0.53773
3 1 0.679916 0.309722 0.781196
1 1 0.703282 0.0264568 0.209206
4 2 0.200296 0.226776 0.872899
ITEM: TIMESTEP
690
ITEM: NUMBER OF ATOMS
6
ITEM: BOX BOUNDS pp pp pp
-2.3158774925549999e+01 2.8305169353449998e+01
-2.3158774925549999e+01 2.8305169353449998e+01
-2.3158774925549999e+01 2.8305169353449998e+01
ITEM: ATOMS id type xs ys zs
5 2 0.19031 0.357084 0.703929
2 1 0.689299 0.266362 0.816796
8 2 0.517666 0.538005 0.537733
3 1 0.673317 0.303643 0.791803
1 1 0.837124 0.224707 0.0582154
4 2 0.167698 0.253906 0.906894
ITEM: TIMESTEP
700
ITEM: NUMBER OF ATOMS
6
ITEM: BOX BOUNDS pp pp pp
-2.3158774925549999e+01 2.8305169353449998e+01
-2.3158774925549999e+01 2.8305169353449998e+01