ITEM: TIMESTEP
110
ITEM: NUMBER OF ATOMS
3087
ITEM: BOX BOUNDS pp pp pp
0.0000000000000000e+00 3.6024760995299999e+01
0.0000000000000000e+00 3.6024760995299999e+01
0.0000000000000000e+00 3.6024760995299999e+01
ITEM: ATOMS id type xs ys zs
448 2 0.00343957 0.0605288 0.0194034
2715 2 0.00302705 0.0822837 0.0317134
11 3 0.117435 0.0584375 0.0486399
75 3 0.117402 0.0845336 0.00243675
516 3 0.117773 0.0841967 0.145545
1 3 0.0653299 0.00156172 0.10008
4 2 0.0401856 0.0282813 0.118724
513 2 0.0377278 0.112235 0.072997
2660 2 0.0932893 0.0183013 0.0761163
521 2 0.0929428 0.125458 0.123082
889 2 0.00314655 0.0606219 0.162333
457 2 0.146949 0.0602823 0.0192071
2724 2 0.145832 0.0823812 0.0317489
20 3 0.260586 0.05847 0.0483219
84 3 0.260463 0.0843544 0.00256734
525 3 0.260261 0.0845287 0.14529
10 3 0.208188 0.00156803 0.10008
13 2 0.18304 0.028285 0.118729
522 2 0.180581 0.112232 0.0729904
2669 2 0.236152 0.0183109 0.0761085
530 2 0.235806 0.125446 0.123088
898 2 0.146084 0.0605905 0.162272
466 2 0.28931 0.0604806 0.0193564
2733 2 0.288721 0.0822782 0.0317149
29 3 0.403577 0.0584805 0.0481569
93 3 0.403488 0.0842092 0.0026884
534 3 0.40325 0.0844579 0.14539
19 3 0.351038 0.00156616 0.10008
22 2 0.325981 0.0282083 0.118626
531 2 0.323442 0.112236 0.0729949
2678 2 0.379011 0.0183035 0.0761123
539 2 0.378662 0.125446 0.123089
907 2 0.289751 0.0603736 0.162126
475 2 0.431812 0.0605914 0.0194232
2742 2 0.431638 0.0823078 0.0317068
38 3 0.546445 0.0584781 0.048165
102 3 0.546299 0.0842456 0.00264022
543 3 0.545894 0.0845827 0.145234
28 3 0.493893 0.00156493 0.100072
31 2 0.468844 0.0282028 0.118614
540 2 0.466296 0.112233 0.0729917
2687 2 0.521867 0.0183035 0.076112
548 2 0.521517 0.12545 0.123088
916 2 0.432454 0.0604392 0.162157
484 2 0.574725 0.0605709 0.0194469
2751 2 0.574463 0.082286 0.0317057
47 3 0.68902 0.058503 0.0485039
111 3 0.688965 0.0844382 0.00252657
552 3 0.688986 0.084398 0.145395
37 3 0.636752 0.00155569 0.10008
40 2 0.611695 0.0282095 0.118624
549 2 0.609166 0.112244 0.0730074
2696 2 0.664724 0.0183076 0.076109
557 2 0.664379 0.12545 0.123086
925 2 0.575612 0.0603224 0.162083
493 2 0.718156 0.0604725 0.0193121
2760 2 0.717144 0.0822661 0.0317439
56 3 0.83165 0.0584254 0.0486944
120 3 0.831591 0.0845799 0.0023711
561 3 0.832086 0.0841911 0.14559
46 3 0.779607 0.0015562 0.10008
49 2 0.754469 0.0282834 0.118727
558 2 0.752006 0.11223 0.0729892
2705 2 0.807584 0.0183117 0.0761083
566 2 0.807224 0.125459 0.123075
934 2 0.718013 0.0604397 0.162172
2 3 0.974944 0.0584703 0.0482406
66 3 0.974808 0.084297 0.00260234
507 3 0.974927 0.0841812 0.145535
502 2 0.861329 0.0603521 0.0192589
2769 2 0.860143 0.0822944 0.0317351
2651 2 0.950434 0.0183059 0.0761138
512 2 0.950088 0.125458 0.123083
55 3 0.922474 0.00157341 0.100079
58 2 0.897322 0.0282867 0.118732
567 2 0.894869 0.112234 0.0729949
943 2 0.860355 0.0605641 0.16223
511 2 0.00396172 0.203274 0.0193078
2778 2 0.00290444 0.225136 0.0317411
74 3 0.117597 0.20136 0.0485037
138 3 0.117546 0.227299 0.00253561
579 3 0.117473 0.227335 0.145334
64 3 0.065343 0.144422 0.100095
67 2 0.0402605 0.171071 0.118635
576 2 0.037724 0.25509 0.0729912
2723 2 0.0932974 0.161164 0.0761136
584 2 0.0929473 0.268303 0.123086
952 2 0.00393012 0.203299 0.162169
520 2 0.146722 0.203314 0.0193022
2787 2 0.145703 0.225143 0.031754
83 3 0.260732 0.201326 0.0481071
147 3 0.26067 0.22703 0.00273424
588 3 0.260608 0.227083 0.145534
73 3 0.208205 0.144426 0.100083
76 2 0.18308 0.171105 0.118682
585 2 0.18057 0.25508 0.0729785
2732 2 0.236148 0.161162 0.0761163
593 2 0.235804 0.268305 0.123084
961 2 0.146406 0.203133 0.162442
529 2 0.288863 0.203447 0.0193929
2796 2 0.288854 0.225221 0.0317351
92 3 0.403585 0.201326 0.0481381
156 3 0.403488 0.227073 0.00268943
597 3 0.403499 0.227055 0.145541
82 3 0.351056 0.144432 0.100093
85 2 0.325898 0.17114 0.118732
594 2 0.323411 0.255065 0.0729553
2741 2 0.379007 0.161164 0.0761121
602 2 0.378666 0.268304 0.123087
970 2 0.288996 0.203441 0.162256
538 2 0.431798 0.203463 0.019425
2805 2 0.431665 0.225163 0.0317111
101 3 0.546434 0.201333 0.048145
165 3 0.54634 0.227061 0.00269357
606 3 0.545979 0.227394 0.145294
91 3 0.493919 0.144427 0.100083
94 2 0.46874 0.171153 0.118746
603 2 0.466275 0.255071 0.0729638
2750 2 0.52186 0.161161 0.0761168
611 2 0.52152 0.268305 0.123089
979 2 0.431737 0.203469 0.162329
547 2 0.574663 0.203462 0.019434
2814 2 0.574512 0.225159 0.0317066
110 3 0.689254 0.201314 0.0481897
174 3 0.68918 0.227072 0.00266199
615 3 0.689251 0.227017 0.145601
100 3 0.636764 0.144422 0.100089
103 2 0.611655 0.171102 0.118676
612 2 0.609152 0.25509 0.0729876
2759 2 0.66473 0.161165 0.0761106
620 2 0.664367 0.268319 0.123075
988 2 0.575548 0.203119 0.162012
556 2 0.717545 0.203446 0.0193973
2823 2 0.717385 0.225176 0.0317131
119 3 0.83219 0.201354 0.0480886
183 3 0.832132 0.227021 0.00276972
624 3 0.83181 0.227312 0.145376
109 3 0.77964 0.144425 0.100093
112 2 0.754471 0.171139 0.118726
621 2 0.752016 0.255096 0.0729978
2768 2 0.807577 0.161158 0.0761197
629 2 0.807236 0.2683 0.123092
997 2 0.717401 0.203485 0.162297
65 3 0.974679 0.201332 0.0485499
129 3 0.974595 0.227356 0.00246938
570 3 0.97463 0.227336 0.145356
565 2 0.860271 0.203451 0.0194134
2832 2 0.860223 0.225199 0.0317164
2714 2 0.950441 0.161166 0.0761123
575 2 0.950093 0.268301 0.123088
118 3 0.922481 0.144424 0.10009
121 2 0.897407 0.171069 0.118632
630 2 0.894855 0.255079 0.0729735
1006 2 0.861029 0.203335 0.162173
574 2 0.00324052 0.3463 0.0194099
2841 2 0.00306634 0.368066 0.0317068
137 3 0.117783 0.344176 0.0482177
201 3 0.117736 0.369972 0.002677
642 3 0.117446 0.370237 0.145332
127 3 0.0653485 0.287294 0.100089
130 2 0.0401584 0.314019 0.118765
639 2 0.0376452 0.397875 0.0728948
2786 2 0.0932867 0.304016 0.0761199
647 2 0.0929545 0.411134 0.123106
1015 2 0.00322641 0.346299 0.162234
583 2 0.146213 0.346284 0.0193533
2850 2 0.145956 0.368036 0.0317151
146 3 0.260699 0.344162 0.0481639
210 3 0.260615 0.36993 0.00267486
651 3 0.260401 0.370179 0.145397
136 3 0.208212 0.287279 0.100087
139 2 0.183107 0.313937 0.118648
648 2 0.180545 0.397912 0.0729473
2795 2 0.236153 0.304021 0.0761129
656 2 0.235813 0.411132 0.123109
1024 2 0.146817 0.346135 0.162164
592 2 0.288965 0.34629 0.0193892
2859 2 0.288838 0.368058 0.0317306
155 3 0.403088 0.344137 0.0486971
219 3 0.403057 0.370288 0.00239695
660 3 0.403527 0.369878 0.145599
145 3 0.351057 0.287276 0.100095
148 2 0.325974 0.313929 0.118637
657 2 0.323407 0.397918 0.0729548
2804 2 0.37902 0.304028 0.0761072
665 2 0.378658 0.411167 0.123086
1033 2 0.28958 0.346176 0.162148
601 2 0.43275 0.346031 0.019205
2868 2 0.43156 0.368062 0.0317686
164 3 0.546426 0.344179 0.0481265
228 3 0.546369 0.369894 0.00272698
669 3 0.546409 0.369875 0.145615
154 3 0.493924 0.287294 0.100084
157 2 0.468733 0.314017 0.118757
666 2 0.466265 0.397919 0.0729584
2813 2 0.521859 0.304018 0.076118
674 2 0.52151 0.411165 0.123086
1042 2 0.431721 0.346314 0.162263
610 2 0.574612 0.346294 0.019381
2877 2 0.574572 0.368079 0.0317379
173 3 0.688845 0.344143 0.0486624
237 3 0.688751 0.370316 0.00237915
678 3 0.689205 0.369923 0.145563
163 3 0.636771 0.287274 0.100094
166 2 0.61159 0.314018 0.118756
675 2 0.609118 0.397915 0.0729522
2822 2 0.664731 0.30403 0.0761089
683 2 0.664376 0.411166 0.123088
1051 2 0.574552 0.346303 0.162261
619 2 0.718427 0.346064 0.0192701
2886 2 0.717266 0.368052 0.0317878
182 3 0.831671 0.344137 0.0486734
246 3 0.831602 0.3703 0.00238007
687 3 0.83208 0.369918 0.145553
172 3 0.779625 0.287283 0.100091
175 2 0.75445 0.314015 0.118754
684 2 0.751952 0.397895 0.072926
2831 2 0.807582 0.304027 0.0761092
692 2 0.807238 0.411151 0.123099
1060 2 0.717554 0.346275 0.162246
128 3 0.974994 0.344212 0.0481368
192 3 0.974969 0.369937 0.00278095
633 3 0.974925 0.369908 0.145576
628 2 0.861291 0.346076 0.0192594
2895 2 0.860153 0.368041 0.0317696
2777 2 0.950435 0.304019 0.0761142
638 2 0.950083 0.411165 0.123084
181 3 0.92248 0.287292 0.100092
184 2 0.897306 0.314014 0.118759
693 2 0.894826 0.397911 0.072945
1069 2 0.860294 0.346315 0.162327
637 2 0.00417494 0.488905 0.019305
2904 2 0.0029637 0.510865 0.0317359
200 3 0.117825 0.487085 0.0481548
264 3 0.11785 0.512773 0.00281235
705 3 0.117308 0.513152 0.145223
190 3 0.0653522 0.43014 0.10013
193 2 0.0402347 0.45681 0.118672
702 2 0.0377631 0.540841 0.0730442
2849 2 0.0932886 0.446851 0.076127
710 2 0.0929458 0.554037 0.123087
1078 2 0.00371529 0.48904 0.162226
646 2 0.146083 0.489179 0.0194801
2913 2 0.145891 0.510931 0.0316507
209 3 0.260712 0.487054 0.0481547
273 3 0.260621 0.512754 0.00266971
714 3 0.260265 0.513087 0.145284
199 3 0.208207 0.430127 0.100112
202 2 0.18314 0.456766 0.118614
711 2 0.180554 0.540783 0.0729594
2858 2 0.236144 0.446856 0.0761248
719 2 0.235796 0.554042 0.123086
1087 2 0.147057 0.488917 0.162107
655 2 0.288923 0.489205 0.0194612
2922 2 0.288785 0.51084 0.0316725
218 3 0.403267 0.487079 0.0485451
282 3 0.403193 0.513038 0.00247797
723 3 0.403436 0.512803 0.14551
208 3 0.351046 0.430128 0.100112
211 2 0.32596 0.456799 0.118653
720 2 0.323501 0.540862 0.0730712
2867 2 0.379012 0.446856 0.0761257
728 2 0.378655 0.554046 0.123077
1096 2 0.289722 0.488827 0.16212
664 2 0.432489 0.489041 0.0193408
2931 2 0.431433 0.510832 0.0317395
227 3 0.546356 0.487036 0.0482479
291 3 0.546168 0.512878 0.00253549
732 3 0.545931 0.513105 0.145243
217 3 0.493926 0.430127 0.100111
220 2 0.468767 0.456845 0.118711
729 2 0.466325 0.540834 0.0730333
2876 2 0.521861 0.446859 0.0761251
737 2 0.521506 0.554045 0.123084
1105 2 0.431922 0.489135 0.162221
673 2 0.574828 0.489122 0.0194874
2940 2 0.574469 0.510844 0.0316713
236 3 0.68884 0.487054 0.048652
300 3 0.688722 0.513141 0.00235143
741 3 0.68901 0.513012 0.145433
226 3 0.636742 0.430122 0.100115
229 2 0.611745 0.456735 0.118566
738 2 0.609251 0.540896 0.0731169
2885 2 0.664724 0.446841 0.0761326
746 2 0.664364 0.554044 0.123093
1114 2 0.575497 0.488967 0.16218
682 2 0.718474 0.488906 0.0192653
2949 2 0.717215 0.510824 0.0316842
245 3 0.832012 0.487069 0.0483363
309 3 0.831889 0.512921 0.00256354
750 3 0.831967 0.512805 0.145444
235 3 0.779645 0.430127 0.100103
238 2 0.754636 0.456706 0.118521
747 2 0.752104 0.540892 0.0731145
2894 2 0.80758 0.446857 0.0761238
755 2 0.807219 0.554051 0.123076
1123 2 0.71815 0.488995 0.162203
191 3 0.97454 0.487023 0.0486775
255 3 0.974439 0.513153 0.00235412
696 3 0.974677 0.512952 0.145371
691 2 0.860755 0.489044 0.0193693
2958 2 0.860105 0.510835 0.0316946
2840 2 0.950437 0.446855 0.0761262
701 2 0.950075 0.554057 0.123071
244 3 0.922486 0.430138 0.100129
247 2 0.897376 0.456811 0.118672
756 2 0.894919 0.540853 0.0730592
1132 2 0.860462 0.48916 0.162315
700 2 0.00348495 0.631692 0.0196405
2967 2 0.00302524 0.653882 0.0317296
263 3 0.117472 0.629902 0.0486009
327 3 0.117352 0.655976 0.00239667
768 3 0.11775 0.655633 0.145525
253 3 0.0652978 0.572997 0.100085
256 2 0.040232 0.599668 0.118668
765 2 0.037743 0.68368 0.0730191
2912 2 0.09329 0.589713 0.0761252
773 2 0.0929309 0.696904 0.123074
1141 2 0.0033484 0.632005 0.162233
709 2 0.146935 0.631833 0.0193491
2976 2 0.145786 0.653677 0.0317185
272 3 0.260709 0.629924 0.048161
336 3 0.260619 0.655621 0.00267453
777 3 0.260346 0.65588 0.145348
262 3 0.208172 0.572993 0.100084
265 2 0.183049 0.599704 0.118714
774 2 0.180609 0.683689 0.0730388
2921 2 0.236142 0.589713 0.0761237
782 2 0.235794 0.6969 0.12309
1150 2 0.146116 0.632041 0.162285
718 2 0.288951 0.632055 0.0194583
2985 2 0.288768 0.653693 0.0316724
281 3 0.403238 0.629858 0.048533
345 3 0.403248 0.65581 0.00248051
786 3 0.403496 0.655621 0.145561
271 3 0.351011 0.572959 0.100077
274 2 0.326006 0.599616 0.11859
783 2 0.323495 0.683713 0.073064
2930 2 0.379015 0.589717 0.0761205
791 2 0.378648 0.696906 0.123073
1159 2 0.289645 0.631877 0.162182
727 2 0.432344 0.631928 0.0192554
2994 2 0.431607 0.653731 0.0317163
290 3 0.546402 0.629943 0.0481569
354 3 0.54637 0.655582 0.00274658
795 3 0.546327 0.655608 0.145517
280 3 0.493891 0.572999 0.100077
283 2 0.468779 0.599689 0.118695
792 2 0.466344 0.683707 0.0730559
2939 2 0.521848 0.58971 0.076128
800 2 0.521506 0.696914 0.123074
1168 2 0.431802 0.632009 0.162247
736 2 0.574678 0.632013 0.0194258
3003 2 0.574478 0.653726 0.0316816
299 3 0.688959 0.629936 0.0485632
363 3 0.68892 0.655883 0.00249259
804 3 0.689142 0.655648 0.14552
289 3 0.63672 0.572976 0.100078
292 2 0.611655 0.599673 0.118672
801 2 0.609197 0.683702 0.0730512
2948 2 0.664715 0.589721 0.0761147
809 2 0.664357 0.696917 0.123071
1177 2 0.574641 0.632057 0.162317
745 2 0.718213 0.631887 0.0193299
3012 2 0.717135 0.653681 0.031702
308 3 0.831662 0.629881 0.0486996
372 3 0.831598 0.655996 0.00236327
813 3 0.831993 0.655651 0.145503
298 3 0.779588 0.572973 0.100072
301 2 0.7545 0.599683 0.118681
810 2 0.752066 0.683715 0.0730674
2957 2 0.807573 0.589713 0.0761253
818 2 0.807211 0.696918 0.123067
1186 2 0.717662 0.631998 0.162229
254 3 0.975044 0.629891 0.0481627
318 3 0.974633 0.655883 0.00248264
759 3 0.974856 0.655646 0.145508
754 2 0.861358 0.631747 0.019229
3021 2 0.860098 0.653711 0.0317243
2903 2 0.950434 0.589712 0.0761266
764 2 0.950072 0.696913 0.12307
307 3 0.922444 0.572979 0.100081
310 2 0.897358 0.599684 0.118684
819 2 0.894916 0.683707 0.0730574
1195 2 0.86051 0.632004 0.162233
763 2 0.00312592 0.774916 0.019433
3030 2 0.00307225 0.796589 0.0316718
326 3 0.117557 0.772788 0.0485325
390 3 0.117501 0.798737 0.00249658
831 3 0.117616 0.798633 0.14543
316 3 0.0653184 0.715845 0.100098
319 2 0.0402252 0.742531 0.118675
828 2 0.0377691 0.82656 0.0730483
2975 2 0.0932862 0.732566 0.0761285
836 2 0.0929405 0.839753 0.123077
1204 2 0.00367954 0.774759 0.162208
772 2 0.146764 0.774763 0.0193201
3039 2 0.145731 0.796544 0.0317257
335 3 0.26062 0.7728 0.0482258
399 3 0.260569 0.798529 0.00262463
840 3 0.260168 0.798873 0.145217
325 3 0.208127 0.71582 0.100114
328 2 0.183054 0.742548 0.118707
837 2 0.180607 0.826544 0.0730275
2984 2 0.236121 0.7325 0.0761644
845 2 0.235799 0.839749 0.123087
1213 2 0.146454 0.774786 0.16222
781 2 0.289086 0.774879 0.0193394
3048 2 0.28884 0.796626 0.0316514
344 3 0.403511 0.772772 0.0482043
408 3 0.403474 0.798506 0.00269001
849 3 0.403505 0.798451 0.14553
334 3 0.351032 0.715824 0.100073
337 2 0.326002 0.742474 0.118594
846 2 0.323505 0.826579 0.073072
2993 2 0.379002 0.732565 0.0761291
854 2 0.378652 0.839761 0.123077
1222 2 0.289842 0.774631 0.162187
790 2 0.431872 0.774846 0.0193631
3057 2 0.431651 0.796621 0.0317008
353 3 0.546128 0.772791 0.0485446
417 3 0.546081 0.798733 0.00249758
858 3 0.546143 0.798648 0.145385
343 3 0.493863 0.715846 0.100094
346 2 0.468782 0.742544 0.118692
855 2 0.46632 0.826542 0.0730248
3002 2 0.521867 0.732571 0.0761225
863 2 0.521509 0.839759 0.12308
1231 2 0.431699 0.774939 0.162347
799 2 0.575315 0.774745 0.0193303
3066 2 0.574291 0.796572 0.0317339
362 3 0.688961 0.772779 0.048557
426 3 0.688893 0.798755 0.00246507
867 3 0.689248 0.798441 0.145593
352 3 0.636737 0.715835 0.100077
355 2 0.61164 0.742544 0.118687
864 2 0.609187 0.826553 0.0730389
3011 2 0.664717 0.73257 0.0761255
872 2 0.664358 0.839773 0.123067
1240 2 0.57508 0.774762 0.162213
808 2 0.71823 0.774749 0.0193362
3075 2 0.717164 0.796525 0.0317112
371 3 0.831874 0.772808 0.048512
435 3 0.831826 0.798714 0.00253108
876 3 0.83201 0.798498 0.14547
361 3 0.779586 0.715835 0.100088
364 2 0.754506 0.742535 0.118679
873 2 0.752053 0.826558 0.0730503
3020 2 0.807574 0.732569 0.0761266
881 2 0.807223 0.839755 0.123082
1249 2 0.717443 0.774883 0.162277
317 3 0.975036 0.772792 0.0480943
381 3 0.974973 0.798444 0.00274646
822 3 0.97471 0.798652 0.145389
817 2 0.861021 0.774752 0.0193236
3084 2 0.859971 0.796545 0.0317212
2966 2 0.950428 0.732562 0.0761291
827 2 0.950075 0.839767 0.123071
370 3 0.922461 0.715837 0.100081
373 2 0.897355 0.742542 0.118685
882 2 0.894902 0.826552 0.0730391
1258 2 0.860448 0.774913 0.162249
2652 2 0.00315485 0.939521 0.0317305
826 2 0.00308242 0.917739 0.0194228
12 3 0.117746 0.941319 0.00267402
453 3 0.117485 0.941604 0.145343
389 3 0.117815 0.915613 0.0481949
450 2 0.0377432 0.969393 0.073014
379 3 0.0653107 0.858692 0.100083
382 2 0.0402173 0.885394 0.118682
458 2 0.09294 0.982607 0.123086
3038 2 0.0932921 0.875426 0.0761245
1267 2 0.00332004 0.917732 0.162302
2661 2 0.145963 0.939444 0.0317048
835 2 0.146166 0.917725 0.0194146
21 3 0.260633 0.941342 0.00270606
462 3 0.260536 0.941397 0.145437
398 3 0.260673 0.915619 0.0481653
459 2 0.180603 0.969394 0.0730173
388 3 0.208185 0.858697 0.100075
391 2 0.183092 0.885379 0.118659
467 2 0.2358 0.982605 0.123087
3047 2 0.236141 0.875427 0.0761254
1276 2 0.146343 0.917432 0.162518
2670 2 0.288833 0.939489 0.031716
844 2 0.288958 0.917733 0.019384
30 3 0.403236 0.941591 0.00250488
471 3 0.40321 0.941613 0.145349
407 3 0.403298 0.915639 0.048508
468 2 0.323445 0.969381 0.0729978
397 3 0.351013 0.858681 0.100075
400 2 0.325939 0.885388 0.118672
476 2 0.378663 0.9826 0.123086
3056 2 0.37901 0.875432 0.0761204
1285 2 0.28913 0.917738 0.162208
2679 2 0.431442 0.939409 0.0317273
853 2 0.432442 0.917617 0.0193154
39 3 0.546424 0.941318 0.00281099
480 3 0.54612 0.941527 0.14537
416 3 0.54645 0.915676 0.0480893
477 2 0.466317 0.969397 0.0730198
406 3 0.493888 0.858693 0.100081
409 2 0.468843 0.885346 0.118614
485 2 0.521514 0.982614 0.123081
3065 2 0.521861 0.875426 0.0761231
1294 2 0.432491 0.91759 0.162168
2688 2 0.574486 0.939498 0.0316894
862 2 0.574594 0.917709 0.0194252
48 3 0.689198 0.941338 0.00267573
489 3 0.688721 0.941716 0.145203
425 3 0.689291 0.915632 0.0481595
486 2 0.609151 0.969375 0.0729891
415 3 0.636731 0.858699 0.100086
418 2 0.611653 0.885389 0.118674
494 2 0.664368 0.982611 0.123085
3074 2 0.664719 0.875424 0.0761266
1303 2 0.575141 0.917609 0.162198
2697 2 0.717343 0.939426 0.031682
871 2 0.717525 0.917749 0.0194446
57 3 0.832046 0.941372 0.00268829
498 3 0.832101 0.941325 0.14561
434 3 0.832113 0.915648 0.048193
495 2 0.752055 0.969416 0.0730457
424 3 0.779611 0.858701 0.100082
427 2 0.754542 0.885359 0.118635
503 2 0.807222 0.982616 0.123078
3083 2 0.807571 0.875426 0.0761251
1312 2 0.71849 0.917492 0.162107
3 3 0.974976 0.941266 0.00273727
444 3 0.974829 0.941396 0.145444
380 3 0.975042 0.915617 0.0480807
2706 2 0.860176 0.939428 0.0316877
880 2 0.860438 0.917751 0.0194302
449 2 0.950086 0.982608 0.123083
3029 2 0.950428 0.875422 0.076129
504 2 0.894882 0.969391 0.0730098
433 3 0.922455 0.8587 0.100079
436 2 0.897369 0.885386 0.118671
1321 2 0.860329 0.9178 0.162326
1330 2 0.00411624 0.0602867 0.304894
69 2 0.00307518 0.0823017 0.174567
510 2 0.0029781 0.0823808 0.317466
452 3 0.117861 0.0584761 0.191009
957 3 0.117737 0.0842456 0.2884
442 3 0.0653482 0.00155112 0.242941
445 2 0.0402201 0.0282519 0.261535
954 2 0.0377364 0.112244 0.215864
14 2 0.0932959 0.0183046 0.21897
962 2 0.0929432 0.125465 0.265935
1339 2 0.146245 0.0605407 0.30506
78 2 0.145935 0.0823153 0.174569
519 2 0.14593 0.0823259 0.317422
461 3 0.260331 0.0584568 0.191467
966 3 0.26047 0.084611 0.28832
451 3 0.208194 0.00157082 0.242952
454 2 0.183043 0.0282821 0.261582
963 2 0.180592 0.112234 0.215858
23 2 0.236155 0.0183061 0.218971
971 2 0.235851 0.12532 0.266002
1348 2 0.289344 0.0601188 0.305132
87 2 0.288652 0.0823133 0.174615
528 2 0.288714 0.0828831 0.317827
470 3 0.403306 0.0585049 0.191369
975 3 0.403038 0.0845638 0.288101
460 3 0.35104 0.00156666 0.242927
463 2 0.32602 0.0281804 0.261419
972 2 0.323438 0.112234 0.215849
32 2 0.379022 0.0183142 0.218961
980 2 0.378655 0.125458 0.265937
1357 2 0.432778 0.0603072 0.304904
96 2 0.431416 0.0822956 0.174612
537 2 0.431573 0.0823123 0.317453
479 3 0.545937 0.0584314 0.191567
984 3 0.546355 0.0841878 0.288423
469 3 0.493908 0.00156348 0.242945
472 2 0.468789 0.0282528 0.261541
981 2 0.466277 0.112217 0.215828
41 2 0.521867 0.0183048 0.218971
989 2 0.521509 0.125471 0.26593
1366 2 0.574649 0.0605967 0.305116
105 2 0.574402 0.0823259 0.174606
546 2 0.574552 0.0823351 0.317427
488 3 0.689087 0.0584685 0.191255
993 3 0.688877 0.0847424 0.288096
478 3 0.636747 0.00156229 0.242929
481 2 0.611618 0.0282783 0.261577
990 2 0.609171 0.112236 0.215867
50 2 0.664722 0.0183 0.218976
998 2 0.664466 0.125194 0.266043
1375 2 0.718094 0.0607502 0.304807
114 2 0.717272 0.0822764 0.174567
555 2 0.717142 0.0822798 0.317135
497 3 0.832128 0.0584812 0.191001
1002 3 0.832043 0.0842003 0.288383
487 3 0.77962 0.00155667 0.24292
490 2 0.75453 0.0282309 0.26148
999 2 0.752018 0.11224 0.215859
59 2 0.807575 0.0183022 0.218969
1007 2 0.807228 0.125461 0.265937
443 3 0.975067 0.0584708 0.190956
948 3 0.974542 0.0845305 0.288153
1384 2 0.860382 0.0606041 0.305134
123 2 0.860247 0.0823619 0.174589
564 2 0.860244 0.0823112 0.317419
5 2 0.950435 0.0182991 0.218977
953 2 0.950092 0.12545 0.265949
496 3 0.922475 0.00156679 0.242942
499 2 0.89733 0.0282796 0.261581
1008 2 0.894856 0.112223 0.215834
1393 2 0.00414247 0.203114 0.30486
132 2 0.00287581 0.225119 0.174594
573 2 0.00296935 0.225264 0.31748
515 3 0.117847 0.201299 0.191075
1020 3 0.117417 0.227389 0.288166
505 3 0.0653363 0.144415 0.242942
508 2 0.0402151 0.171113 0.261544
1017 2 0.0377197 0.255087 0.215843
77 2 0.0933048 0.16117 0.218965
1025 2 0.0929404 0.268307 0.265943
1402 2 0.146988 0.203182 0.304869
141 2 0.14589 0.225295 0.174605
582 2 0.145818 0.225255 0.317491
524 3 0.260683 0.201317 0.19105
1029 3 0.260656 0.227061 0.288464
514 3 0.208274 0.144374 0.242992
517 2 0.183136 0.171055 0.261488
1026 2 0.180571 0.255081 0.215835
86 2 0.236154 0.161163 0.218973
1034 2 0.235798 0.268317 0.265934
1411 2 0.288979 0.203426 0.305094
150 2 0.288795 0.225165 0.174574
591 2 0.288787 0.225189 0.317427
533 3 0.403649 0.201333 0.190948
1038 3 0.403203 0.227332 0.28821
523 3 0.351057 0.144435 0.242946
526 2 0.325898 0.17114 0.261588
1035 2 0.323426 0.255077 0.215833
95 2 0.379003 0.161161 0.218975
1043 2 0.378663 0.268301 0.265947
1420 2 0.432493 0.203292 0.30502
159 2 0.431632 0.225152 0.174564
600 2 0.431458 0.225135 0.317457
542 3 0.545977 0.201288 0.191531
1047 3 0.546131 0.227255 0.288252
532 3 0.493908 0.144426 0.242954
535 2 0.468838 0.171066 0.261485
1044 2 0.466296 0.25509 0.215847
104 2 0.521872 0.161166 0.218969
1052 2 0.521518 0.26831 0.265938
1429 2 0.575147 0.203304 0.305034
168 2 0.5744 0.225266 0.174627
609 2 0.574418 0.225132 0.317427
551 3 0.689313 0.201317 0.190966
1056 3 0.689225 0.227049 0.288444
541 3 0.636904 0.144329 0.24303
544 2 0.611636 0.17112 0.261591
1053 2 0.609139 0.255078 0.215833
113 2 0.664722 0.161163 0.218978
1061 2 0.664369 0.268317 0.265933
1438 2 0.717512 0.20342 0.30509
177 2 0.717396 0.225176 0.174574
618 2 0.71738 0.22521 0.317441
560 3 0.831868 0.201348 0.191367
1065 3 0.831816 0.227328 0.288229
550 3 0.779617 0.144432 0.242952
553 2 0.754473 0.171137 0.261583
1062 2 0.752003 0.255081 0.215837
122 2 0.807585 0.161167 0.218969
1070 2 0.807245 0.268273 0.265953
506 3 0.974709 0.201347 0.191379
1011 3 0.974545 0.227398 0.288161
1447 2 0.861024 0.203339 0.304966
186 2 0.860008 0.225109 0.174588
627 2 0.859978 0.225146 0.317395
68 2 0.950439 0.161169 0.218966
1016 2 0.950096 0.268301 0.265948
559 3 0.922485 0.144415 0.242937
562 2 0.897389 0.171086 0.261504
1071 2 0.894856 0.25508 0.215836
1456 2 0.00310182 0.346306 0.305114
195 2 0.00314904 0.368069 0.174592
636 2 0.00312441 0.368081 0.317455
578 3 0.117555 0.344184 0.19139
1083 3 0.117853 0.369873 0.288495
568 3 0.0653614 0.287283 0.242946
571 2 0.0401506 0.314027 0.261629
1080 2 0.0376748 0.397902 0.215791
140 2 0.0932871 0.304024 0.218973
1088 2 0.0929398 0.411171 0.265942
1465 2 0.145993 0.346312 0.305128
204 2 0.14577 0.368022 0.174632
645 2 0.145941 0.36805 0.317433
587 3 0.260462 0.344206 0.191355
1092 3 0.260648 0.369923 0.288457
577 3 0.208196 0.28729 0.242961
580 2 0.183029 0.314007 0.261605
1089 2 0.180524 0.397895 0.215781
149 2 0.23616 0.304028 0.218966
1097 2 0.235805 0.41116 0.265947
1474 2 0.288979 0.346284 0.305085
213 2 0.288577 0.368032 0.174644
654 2 0.288825 0.368074 0.31745
596 3 0.403588 0.344183 0.19096
1101 3 0.403551 0.36986 0.288464
586 3 0.351071 0.287294 0.242946
589 2 0.325873 0.314018 0.261617
1098 2 0.323368 0.397885 0.215767
158 2 0.379001 0.304017 0.218974
1106 2 0.378653 0.411166 0.265941
1483 2 0.431651 0.346322 0.305125
222 2 0.431715 0.368067 0.174581
663 2 0.431743 0.368097 0.317463
605 3 0.546473 0.344196 0.190942
1110 3 0.546341 0.369913 0.288409
595 3 0.493911 0.287288 0.242952
598 2 0.468731 0.314019 0.261619
1107 2 0.466266 0.39792 0.215814
167 2 0.521867 0.304019 0.218972
1115 2 0.521516 0.411166 0.265944
1492 2 0.57465 0.346327 0.305153
231 2 0.574547 0.368076 0.174592
672 2 0.574538 0.368021 0.317424
614 3 0.689283 0.344188 0.191014
1119 3 0.68921 0.369889 0.28843
604 3 0.636779 0.287292 0.24295
607 2 0.611594 0.314013 0.26161
1116 2 0.609116 0.397913 0.215806
176 2 0.66472 0.304017 0.218975
1124 2 0.664368 0.411175 0.26594
1501 2 0.71749 0.346328 0.305124
240 2 0.717368 0.36805 0.174587
681 2 0.717445 0.368045 0.31743
623 3 0.832243 0.344185 0.190932
1128 3 0.83175 0.370225 0.288197
613 3 0.779642 0.28728 0.242956
616 2 0.754454 0.314012 0.261613
1125 2 0.75198 0.39792 0.215813
185 2 0.80758 0.304021 0.218971
1133 2 0.807234 0.411152 0.265955
569 3 0.974977 0.344173 0.191001
1074 3 0.974991 0.369871 0.28848
1510 2 0.861179 0.346078 0.304915
249 2 0.860214 0.36803 0.174585
690 2 0.860078 0.368083 0.317489
131 2 0.950433 0.30402 0.218974
1079 2 0.950086 0.411163 0.265941
622 3 0.922492 0.287295 0.242939
625 2 0.897398 0.313932 0.261502
1134 2 0.894832 0.397915 0.215807
1519 2 0.00356061 0.48911 0.305137
258 2 0.00298755 0.510812 0.174541
699 2 0.00297517 0.5108 0.317424
641 3 0.117359 0.487005 0.191566
1146 3 0.117525 0.513006 0.288228
631 3 0.0653466 0.430132 0.24296
634 2 0.0402635 0.456785 0.261485
1143 2 0.0377866 0.540862 0.21593
203 2 0.093294 0.446858 0.218982
1151 2 0.0929379 0.554043 0.265943
1528 2 0.146738 0.489067 0.305056
267 2 0.145838 0.510864 0.174573
708 2 0.145696 0.510814 0.317439
650 3 0.26036 0.487018 0.191432
1155 3 0.260404 0.512945 0.288245
640 3 0.208199 0.430136 0.242976
643 2 0.183181 0.45673 0.261418
1152 2 0.180618 0.54084 0.215898
212 2 0.236154 0.446856 0.218983
1160 2 0.235794 0.554051 0.265936
1537 2 0.289424 0.489047 0.305079
276 2 0.288687 0.510971 0.174602
717 2 0.288698 0.510808 0.317401
659 3 0.403479 0.487037 0.191096
1164 3 0.403439 0.512781 0.288301
649 3 0.351069 0.43014 0.242978
652 2 0.32594 0.456819 0.261537
1161 2 0.323467 0.540833 0.21589
221 2 0.379002 0.446851 0.218988
1169 2 0.378643 0.554054 0.265936
1546 2 0.431956 0.489219 0.305042
285 2 0.431672 0.510898 0.174559
726 2 0.431608 0.510858 0.317403
668 3 0.546016 0.487036 0.191495
1173 3 0.546346 0.512748 0.288394
658 3 0.493894 0.430121 0.242967
661 2 0.468831 0.456786 0.261492
1170 2 0.466322 0.540829 0.215884
230 2 0.521873 0.446861 0.218978
1178 2 0.52151 0.554053 0.265932
1555 2 0.57463 0.489178 0.305159
294 2 0.574363 0.510843 0.174585
735 2 0.574492 0.510871 0.317407
677 3 0.688999 0.487091 0.191398
1182 3 0.689016 0.51291 0.288253
667 3 0.636758 0.430129 0.242969
670 2 0.611654 0.456818 0.261535
1179 2 0.609202 0.540851 0.215916
239 2 0.664722 0.446853 0.218988
1187 2 0.664361 0.554052 0.265931
1564 2 0.717888 0.489062 0.305086
303 2 0.717087 0.510942 0.174589
744 2 0.717285 0.510837 0.317406
686 3 0.832094 0.487028 0.191076
1191 3 0.832041 0.512785 0.288376
676 3 0.779625 0.430127 0.242964
679 2 0.754515 0.456816 0.261531
1188 2 0.752001 0.540802 0.215845
248 2 0.807576 0.446857 0.218981
1196 2 0.807215 0.554046 0.26593
632 3 0.974802 0.487053 0.191252
1137 3 0.974759 0.512892 0.288279
1573 2 0.860408 0.489158 0.305115
312 2 0.860215 0.510854 0.17454
753 2 0.860226 0.510893 0.317423
194 2 0.950437 0.446854 0.218985
1142 2 0.950074 0.55406 0.265935
685 3 0.922478 0.43013 0.242979
688 2 0.89735 0.456834 0.261561
1197 2 0.894937 0.540868 0.21594
1582 2 0.00373405 0.631677 0.305166
321 2 0.00309995 0.653737 0.174545
762 2 0.00299862 0.653845 0.317445
704 3 0.117837 0.629906 0.191021
1209 3 0.117507 0.655883 0.288211
694 3 0.0653089 0.572976 0.242927
697 2 0.0402448 0.599658 0.261503
1206 2 0.037782 0.683715 0.215924
266 2 0.0932853 0.589713 0.218979
1214 2 0.0929449 0.696895 0.265945
1591 2 0.146769 0.631883 0.305027
330 2 0.145952 0.65372 0.17454
771 2 0.145708 0.653683 0.317429
713 3 0.260409 0.629927 0.191395
1218 3 0.260537 0.655697 0.288322
703 3 0.20816 0.572982 0.242935
706 2 0.183147 0.599616 0.26145
1215 2 0.180611 0.683689 0.215887
275 2 0.236147 0.589713 0.218982
1223 2 0.235799 0.696906 0.265937
1600 2 0.289126 0.631986 0.305149
339 2 0.288593 0.653695 0.174585
780 2 0.288713 0.65368 0.317393
722 3 0.403543 0.629916 0.191026
1227 3 0.403226 0.655875 0.28821
712 3 0.35103 0.572991 0.242943
715 2 0.325931 0.599683 0.261538
1224 2 0.323466 0.683688 0.215887
284 2 0.378999 0.589713 0.218977
1232 2 0.378655 0.696897 0.265943
1609 2 0.432463 0.631893 0.305035
348 2 0.431669 0.653767 0.17456
789 2 0.431434 0.653684 0.317432
731 3 0.546417 0.629905 0.191018
1236 3 0.546343 0.655593 0.288368
721 3 0.493874 0.572988 0.242939
724 2 0.468862 0.599616 0.261448
1233 2 0.466324 0.683689 0.215886
293 2 0.521866 0.589713 0.21898
1241 2 0.521506 0.69691 0.265932
1618 2 0.574563 0.632076 0.305208
357 2 0.574516 0.653711 0.174537
798 2 0.57452 0.653711 0.317392
740 3 0.68917 0.629914 0.191108
1245 3 0.689086 0.655694 0.288282
730 3 0.63674 0.572996 0.242939
733 2 0.611654 0.599673 0.261529
1242 2 0.609211 0.683715 0.215925
302 2 0.664711 0.589707 0.218986
1250 2 0.664365 0.696908 0.265934
1627 2 0.717682 0.631974 0.305134
366 2 0.717371 0.653729 0.174545
807 2 0.717333 0.653724 0.31741
749 3 0.832025 0.629897 0.191112
1254 3 0.831695 0.655899 0.288132
739 3 0.779615 0.572986 0.242948
742 2 0.754515 0.599671 0.261526
1251 2 0.75206 0.683708 0.215913
311 2 0.807569 0.589709 0.218988
1259 2 0.807225 0.696906 0.265937
695 3 0.974882 0.629905 0.191108
1200 3 0.974581 0.655899 0.288158
1636 2 0.861107 0.631807 0.304989
375 2 0.860246 0.653736 0.174551
816 2 0.86015 0.653727 0.31742
257 2 0.95043 0.589714 0.218976
1205 2 0.95009 0.696903 0.265945