LAMMPS data file via write_data, version 23 Jun 2022, timestep = 1

3000 atoms
3 atom types

0 35.8 xlo xhi
0 35.8 ylo yhi
0 35.8 zlo zhi

Masses

1 1.00784
2 15.9991
3 28.0855

Atoms # charge

1 3 1.807754607529382 35.79999999195288 35.79999999195295 35.79999999172866 -1 -1 -1
2 3 1.80775557524607 7.121172984625445e-09 3.5800000160674115 3.5800000160650733 0 0 0
3 3 1.807757193016212 3.5800000160662604 3.580000016065812 7.1219616870621386e-09 0 0 0
4 3 1.80775557537579 3.5800000160662884 7.121151668343372e-09 3.58000001606524 0 0 0
5 3 1.807760169543001 5.37000000224752 1.7899999681053491 5.370000002245796 0 0 0
6 3 1.807761238150675 1.7900000000151053 1.7900000000149368 1.7900000000131908 0 0 0
7 3 1.807760169502726 1.7899999681042686 5.3700000022470995 5.370000002245799 0 0 0
8 3 1.80776345516708 5.370000002341102 5.370000002340359 1.7899999680118919 0 0 0
9 2 -0.903882104024113 0.8949999999996616 0.8950000000000027 0.895000000001708 0 0 0
10 2 -0.9038778396358167 6.264999986176784 2.684999987532366 4.4750000110713355 0 0 0
11 2 -0.9038778576732568 2.6849999875336255 4.475000011070161 6.264999986177934 0 0 0
12 2 -0.9038793718751591 4.475000011069971 6.264999986178127 2.684999987533454 0 0 0
13 2 -0.9038778395313378 2.684999987532744 6.264999986177316 4.475000011070905 0 0 0
14 2 -0.9038793719509016 6.2649999861778705 4.4750000110701365 2.6849999875332555 0 0 0
15 2 -0.9038778577052384 4.475000011070307 2.684999987533171 6.264999986177913 0 0 0
16 2 -0.9038808418672215 0.8950000012315003 4.474999999569132 4.4749999995699845 0 0 0
17 2 -0.903884165682916 6.2649999993663466 6.264999999366517 0.8949999989680695 0 0 0
18 2 -0.9038794354611831 2.685000000045567 0.894999999988263 2.68500000004689 0 0 0
19 2 -0.9038803686775381 2.685000000044974 2.6850000000451244 0.8949999999899106 0 0 0
20 2 -0.9038828078212613 6.264999999291265 0.894999999042542 6.264999999291783 0 0 0
21 2 -0.9038808418828328 4.4749999995697065 0.8950000012317221 4.474999999570431 0 0 0
22 2 -0.9038828078888793 0.894999999042026 6.264999999291735 6.264999999292416 0 0 0
23 2 -0.903879435427277 0.8949999999882767 2.685000000045497 2.685000000046819 0 0 0
24 2 -0.9038831989580099 4.474999999570199 4.47499999957054 0.8950000012321497 0 0 0
25 3 1.80774858665359 7.160000110392354 8.462787803864556e-09 8.461852551988612e-09 0 0 0
26 3 1.807754729862793 7.160000033986119 3.579999938311583 3.579999938309835 0 0 0
27 3 1.807745569700918 10.740000001102329 3.5799999380598257 35.79999988074261 0 0 -1
28 3 1.807756229553984 10.739999961141633 35.79999999972505 3.5799999779602487 0 -1 0
29 3 1.807756971246404 12.53000006636878 1.7899999837543845 5.370000032146124 0 0 0
30 3 1.807738609806045 8.949999902114346 1.789999984137947 1.7900000316743438 0 0 0
31 3 1.807763595733725 8.950000012151264 5.370000017729028 5.370000017663786 0 0 0
32 3 1.80775740924916 12.530000090169406 5.370000056011992 1.7900000074933793 0 0 0
33 2 -0.9038738845573645 8.054999981561883 0.8949999815253049 0.8949999815266272 0 0 0
34 2 -0.9038805144895611 13.424999986814887 2.6849999868138865 4.475000011675472 0 0 0
35 2 -0.9038805198790854 9.844999989886766 4.47500001165669 6.2649999854404115 0 0 0
36 2 -0.9038783989822391 11.634999997276855 6.264999998314473 2.684999999704929 0 0 0
37 2 -0.9038821272767364 9.84499998991126 6.264999985463714 4.475000011633081 0 0 0
38 2 -0.9038795396024109 13.424999986791125 4.475000011699809 2.684999986790568 0 0 0
39 2 -0.9038770824470334 11.634999997276998 2.684999999704411 6.264999998314664 0 0 0
40 2 -0.9038753627104628 8.055000013458756 4.475000011913349 4.475000011914159 0 0 0
41 2 -0.9038848129907979 13.425000007151551 6.265000005677122 0.8949999928485786 0 0 0
42 2 -0.903874844760556 9.845000033236863 0.894999969625605 2.685000030371896 0 0 0
43 2 -0.9038712814929672 9.845000014708706 2.685000011841834 0.8949999881549213 0 0 0
44 2 -0.9038838727827051 13.42500000712636 0.8949999928734985 6.2650000056523 0 0 0
45 2 -0.9038750187124793 11.634999992145515 0.894999995234989 4.474999993690632 0 0 0
46 2 -0.9038849102562265 8.054999999041053 6.264999999486663 6.264999999487907 0 0 0
47 2 -0.9038752061129072 8.054999975344032 2.6850000246152144 2.685000024616408 0 0 0
48 2 -0.9038706712780744 11.635000010700901 4.475000012244952 0.8950000137909111 0 0 0
49 3 1.807752251555733 14.320000124746102 35.79999997657902 8.335686807470209e-09 0 -1 0
50 3 1.807756335814531 14.319999951914458 3.5799999226558006 3.5799999225904022 0 0 0
51 3 1.807758168577408 17.899999956889335 3.5799999781846306 6.265377017200534e-08 0 0 0
52 3 1.807755092282568 17.899999964876915 5.466555741406864e-08 3.579999970195867 0 0 0
53 3 1.807744786302513 19.69000001165336 1.7899999685294552 5.370000016866247 0 0 0
54 3 1.807739260595599 16.110000007810118 1.7899999921008467 1.7899999920370018 0 0 0
55 3 1.807759465369887 16.110000196625162 5.370000041632345 5.370000025721607 0 0 0
56 3 1.807748296598675 19.690000003701325 5.370000024818284 1.7899999764188044 0 0 0
57 2 -0.903871521553146 15.21499996890003 0.8949999688621184 0.8949999688631822 0 0 0
58 2 -0.9038715643693809 20.58499999923023 2.6849999991922426 4.474999999259652 0 0 0
59 2 -0.9038852475980702 17.00500000001396 4.474999998663415 6.264999998621639 0 0 0
60 2 -0.9038761888889857 18.79499999678776 6.265000007547979 2.685000009094699 0 0 0
61 2 -0.9038868684662181 17.005000006197733 6.265000004804516 4.474999992481122 0 0 0
62 2 -0.9038721735315807 20.58499999923095 4.474999999259719 2.684999999192413 0 0 0
63 2 -0.9038742604120982 18.79500000297272 2.685000002907998 6.265000001363516 0 0 0
64 2 -0.9038760968261521 15.215000000985443 4.474999999403576 4.474999999403917 0 0 0
65 2 -0.9038763890805575 20.585000019540967 6.265000018030943 0.8949999804574125 0 0 0
66 2 -0.9038749743426439 17.005000031041547 0.8949999689563997 2.6850000310424207 0 0 0
67 2 -0.9038760604285633 17.00500003106603 2.6850000310667235 0.8949999689332138 0 0 0
68 2 -0.9038741226972478 20.585000019515952 0.8949999804816439 6.265000018006722 0 0 0
69 2 -0.9038733238363765 18.794999998693022 0.8949999926925194 4.4749999913016145 0 0 0
70 2 -0.9038783100625084 15.214999974156843 6.265000024371843 6.2650000243730375 0 0 0
71 2 -0.9038741494074126 15.214999975068167 2.6850000249298893 2.6850000249304435 0 0 0
72 2 -0.9038750760565909 18.79499999866819 4.474999991276537 0.8949999926680943 0 0 0
73 3 1.807752081326092 21.48000010089084 35.799999984456484 4.3180392594877043e-10 0 -1 0
74 3 1.80775045531211 21.480000007467922 3.579999946426629 3.5799999464252648 0 0 0
75 3 1.807756791456268 25.05999994968725 3.579999937708384 2.2940183086461726e-08 0 0 0
76 3 1.807754719883092 25.059999949544988 2.30201671058694e-08 3.579999937788337 0 0 0
77 3 1.807753559229341 26.850000079701584 1.7899999926216303 5.370000040885651 0 0 0
78 3 1.807733756060587 23.270000027846773 1.7899999921329783 1.7899999921332355 0 0 0
79 3 1.80777369836141 23.27000010521114 5.3700000731112025 5.369999994044848 0 0 0
80 3 1.807754654010483 26.850000087720446 5.370000032994183 1.7899999846045835 0 0 0
81 2 -0.9038741436944473 22.374999968948682 0.8949999689106423 0.8949999689116634 0 0 0
82 2 -0.903872323052951 27.74499998686122 2.684999986824186 4.4750000116286826 0 0 0
83 2 -0.9038880796667078 24.16500000211593 4.474999990526979 6.265000006605537 0 0 0
84 2 -0.9038814374130439 25.954999985442214 6.265000001247417 2.6850000026402525 0 0 0
85 2 -0.9038906897408285 24.164999996252895 6.26500000074184 4.47499999639081 0 0 0
86 2 -0.9038723667541407 27.744999986837378 4.475000011654208 2.6849999867994176 0 0 0
87 2 -0.9038821141614478 25.954999979184215 2.6850000088989048 6.265000007507626 0 0 0
88 2 -0.9038788851483287 22.375000019588356 4.475000018006818 4.475000018006734 0 0 0
89 2 -0.9038789676777046 27.745000007147908 6.265000005638032 0.8949999928519008 0 0 0
90 2 -0.9038746148407488 24.165000033144622 0.8949999608188537 2.6850000391789854 0 0 0
91 2 -0.9038764845264815 24.16500003314521 2.685000039179371 0.8949999608193435 0 0 0
92 2 -0.9038796400831317 27.745000007122513 0.8949999928769382 6.265000005613646 0 0 0
93 2 -0.9038752714223424 25.954999992455598 0.8950000042543662 4.4750000028629 0 0 0
94 2 -0.9038843309503665 22.37499999283244 6.2650000056958595 6.265000005696077 0 0 0
95 2 -0.9038726755681188 22.374999975068256 2.6850000249297525 2.6850000249303068 0 0 0
96 2 -0.9038769766324456 25.954999992479856 4.475000002887496 0.8950000042782238 0 0 0
97 3 1.80775185701422 28.640000092888325 35.79999999245652 35.79999999245668 0 -1 -1
98 3 1.807745549695547 28.639999951872703 3.5799999225930477 3.579999922528715 0 0 0
99 3 1.807753604575297 32.21999994522822 3.5799999539421012 3.845844176453283e-08 0 0 0
100 3 1.807751513854844 32.219999945227535 3.845979534844445e-08 3.5799999539418987 0 0 0
101 3 1.807758512347484 34.00999999202843 1.79000002377511 5.369999978093193 0 0 0
102 3 1.807734816805562 30.43000002359319 1.789999992165118 1.7899999921661418 0 0 0
103 3 1.807757529343303 30.430000220366203 5.370000033678175 5.370000033548881 0 0 0
104 3 1.807759412310355 34.009999991965756 5.36999997815857 1.7900000238389309 0 0 0
105 2 -0.9038735197423912 29.53499996897304 0.8949999689366018 0.8949999689368157 0 0 0
106 2 -0.9038787709063887 34.90500000742189 2.684999995656701 4.475000003020474 0 0 0
107 2 -0.9038865600719393 31.32500001238603 4.4749999862951615 6.265000010990011 0 0 0
108 2 -0.9038794309305785 33.115000019798416 6.264999990572538 2.6849999919674934 0 0 0
109 2 -0.903884686301591 31.32500001243552 6.26500001103793 4.474999986247213 0 0 0
110 2 -0.9038793502672269 34.9050000074221 4.475000003020154 2.6849999956576176 0 0 0
111 2 -0.9038812008600795 33.11500001984709 2.684999991918185 6.264999990524193 0 0 0
112 2 -0.9038703414946214 29.53500000093727 4.474999999355063 4.474999999355148 0 0 0
113 2 -0.9038741221783758 34.90499998985474 6.264999976616433 0.8950000220619962 0 0 0
114 2 -0.9038728878527346 31.325000037154652 0.8949999628460881 2.685000037153291 0 0 0
115 2 -0.903872911209564 31.32500003715383 2.6850000371535843 0.8949999628463972 0 0 0
116 2 -0.903873161499062 34.90499998985436 0.8950000220609158 6.26499997661655 0 0 0
117 2 -0.9038763950671781 33.11500002072478 0.8950000088436698 4.475000007450653 0 0 0
118 2 -0.9038778258938427 29.534999974158048 6.265000024372101 6.265000024372998 0 0 0
119 2 -0.9038689300737994 29.53499997506819 2.6850000249307024 2.6850000249302757 0 0 0
120 2 -0.9038768875709289 33.1150000207242 4.475000007450237 0.8950000088436565 0 0 0
121 3 1.807748586815513 8.460624201234166e-09 7.160000110390204 8.463629797006432e-09 0 0 0
122 3 1.807756229510395 35.7999999997245 10.739999961142006 3.5799999779606777 -1 0 0
123 3 1.807745569815017 3.579999938060083 10.74000000110267 35.799999880741765 0 0 -1
124 3 1.807754729735825 3.5799999383127155 7.160000033986478 3.579999938310136 0 0 0
125 3 1.807763595611047 5.370000017728614 8.950000012150214 5.370000017664067 0 0 0
126 3 1.80773860995586 1.789999984137137 8.949999902114065 1.790000031674912 0 0 0
127 3 1.80775697131475 1.7899999837536424 12.530000066369393 5.370000032146539 0 0 0
128 3 1.807757409246989 5.370000056012083 12.530000090170013 1.7900000074931524 0 0 0
129 2 -0.9038738846217643 0.8949999815259351 8.054999981562588 0.8949999815267797 0 0 0
130 2 -0.903882127246823 6.264999985463431 9.84499998991164 4.475000011632789 0 0 0
131 2 -0.9038770824391613 2.6849999997052154 11.634999997276674 6.2649999983147495 0 0 0
132 2 -0.9038795395138498 4.4750000116999615 13.42499998679079 2.6849999867904955 0 0 0
133 2 -0.9038805144441479 2.6849999868140397 13.42499998681487 4.475000011675353 0 0 0
134 2 -0.9038783989466219 6.264999998314488 11.6349999972762 2.6849999997049734 0 0 0
135 2 -0.9038805198469503 4.475000011656682 9.844999989887171 6.264999985440876 0 0 0
136 2 -0.903875018714237 0.8949999952358156 11.63499999214591 4.474999993690402 0 0 0
137 2 -0.9038848129462107 6.265000005676855 13.42500000715082 0.894999992848931 0 0 0
138 2 -0.9038752060231579 2.685000024615691 8.054999975344282 2.685000024616465 0 0 0
139 2 -0.9038712814710584 2.6850000118420048 9.845000014708523 0.894999988154993 0 0 0
140 2 -0.9038849102696805 6.264999999486374 8.054999999041698 6.264999999487614 0 0 0
141 2 -0.9038753626947096 4.475000011913222 8.055000013458951 4.475000011913902 0 0 0
142 2 -0.9038838729095794 0.8949999928735409 13.425000007126588 6.265000005652426 0 0 0
143 2 -0.9038748447236152 0.8949999696260167 9.845000033236838 2.6850000303717745 0 0 0
144 2 -0.9038706712685434 4.475000012245011 11.635000010700576 0.8950000137910937 0 0 0
145 3 1.807769189501809 7.159999962601708 7.159999962601042 35.79999999903612 0 0 -1
146 3 1.807760368568581 7.1600000339500705 10.739999984108739 3.5800000166487718 0 0 0
147 3 1.807735052609288 10.7399999999987 10.739999999999089 35.79999991309114 0 0 -1
148 3 1.807760368584763 10.739999984107746 7.160000033948613 3.5800000166489623 0 0 0
149 3 1.807755504202952 12.529999954964346 8.95000001342666 5.369999984793484 0 0 0
150 3 1.807756323083431 8.949999997537018 8.949999997535421 1.7900000643610952 0 0 0
151 3 1.807755504294017 8.950000013426889 12.529999954965604 5.369999984793839 0 0 0
152 3 1.807744664175308 12.530000002452592 12.530000002452859 1.7900000327643273 0 0 0
153 2 -0.9038781407846436 8.054999981274483 8.054999981275026 0.8949999813109162 0 0 0
154 2 -0.9038771998642733 13.424999992250271 9.844999995267418 4.475000006239622 0 0 0
155 2 -0.9038775227628046 9.84500000821103 11.634999991790526 6.265000003990947 0 0 0
156 2 -0.9038732063734831 11.635000004169148 13.424999992813564 2.6849999926612638 0 0 0
157 2 -0.9038771999441566 9.844999995267214 13.42499999224979 4.475000006239725 0 0 0
158 2 -0.9038732063402362 13.424999992814026 11.635000004169033 2.6849999926610812 0 0 0
159 2 -0.903877522720833 11.634999991790792 9.84500000821109 6.265000003991349 0 0 0
160 2 -0.9038817690891435 8.054999995386506 11.634999992406728 4.4749999939131575 0 0 0
161 2 -0.9038732094208068 13.425000018677242 13.425000018676647 0.8949999813240179 0 0 0
162 2 -0.9038816739734419 9.845000008159944 8.054999994822131 2.6850000049872205 0 0 0
163 2 -0.903870335277264 9.844999983013272 9.844999983013546 0.895000020155482 0 0 0
164 2 -0.9038794419963071 13.425000019542761 8.054999980459142 6.26500001803273 0 0 0
165 2 -0.9038817690455071 11.634999992407398 8.054999995387114 4.474999993913486 0 0 0
166 2 -0.9038794420489581 8.05499998045885 13.42500001954237 6.265000018032811 0 0 0
167 2 -0.9038816739415761 8.054999994821427 9.845000008160358 2.6850000049874287 0 0 0
168 2 -0.9038652035408463 11.635000016988847 11.635000016988592 0.895000020157118 0 0 0
169 3 1.80776677099416 14.319999984231316 7.159999921387262 3.9856885791778034e-08 0 0 0
170 3 1.807751133673691 14.320000015876397 10.740000000096032 3.580000000857959 0 0 0
171 3 1.807756869627266 17.899999956562308 10.739999960132264 3.1784377796384427e-08 0 0 0
172 3 1.807762555404515 17.89999993319304 7.159999874357482 3.5800000630105306 0 0 0
173 3 1.807755190182722 19.690000004813157 8.950000069323712 5.370000040801092 0 0 0
174 3 1.807761163108504 16.110000007834284 8.950000085503483 1.789999960434761 0 0 0
175 3 1.807754965690145 16.110000015178194 12.529999954492942 5.370000016843195 0 0 0
176 3 1.807749379697143 19.690000020515697 12.52999999370377 1.7900000237330982 0 0 0
177 2 -0.9038831388557557 15.21499999366658 8.054999993666446 0.8949999936656776 0 0 0
178 2 -0.9038741166285639 20.58499998587042 9.844999988887364 4.475000012619724 0 0 0
179 2 -0.9038799025218021 17.005000000116627 11.634999997017013 6.264999998761888 0 0 0
180 2 -0.9038763577302067 18.79499999772835 13.425000008153761 2.68500000830653 0 0 0
181 2 -0.9038775322571486 17.005000011648203 13.425000011649283 4.474999986839702 0 0 0
182 2 -0.9038751733217174 20.584999980420385 11.635000016562156 2.6849999802649314 0 0 0
183 2 -0.9038779184074961 18.79500000396024 9.845000004939966 6.265000000567603 0 0 0
184 2 -0.9038774105671555 15.215000014006913 11.635000010990579 4.475000012497088 0 0 0
185 2 -0.9038752820721849 20.585000006307318 13.42500000630689 0.8949999936921464 0 0 0
186 2 -0.9038806120956954 17.004999993947415 8.055000006014911 2.6849999939843934 0 0 0
187 2 -0.9038810126096645 17.00500000510823 9.845000008130013 0.8949999950426741 0 0 0
188 2 -0.9038797684642371 20.58500001316371 8.054999986838828 6.26500001165244 0 0 0
189 2 -0.9038780900322968 18.795000010789945 8.055000004906141 4.475000003586919 0 0 0
190 2 -0.9038760525321499 15.214999986813957 13.42500001318523 6.265000011676417 0 0 0
191 2 -0.9038777759278639 15.215000013319798 9.844999989699645 2.68499998652501 0 0 0
192 2 -0.9038762132650866 18.795000004738746 11.634999995841232 0.894999998856099 0 0 0
193 3 1.807759542541294 21.479999984332174 7.159999968979524 8.17660605889614e-09 0 0 0
194 3 1.807743935898345 21.479999999998697 10.739999999874135 3.5799999851694766 0 0 0
195 3 1.807758689508649 25.060000011952464 10.740000000142942 35.79999999224797 0 0 -1
196 3 1.807769594992317 25.05999993311157 7.159999938058512 3.5800000643232064 0 0 0
197 3 1.807755562839328 26.85000000072903 8.950000053248674 5.370000024839943 0 0 0
198 3 1.807756859269191 23.26999998736134 8.950000030054849 1.7900000158218745 0 0 0
199 3 1.807750460396947 23.27000001901358 12.529999954311675 5.3700000170418125 0 0 0
200 3 1.807753499347025 26.850000024241044 12.529999986145615 1.7900000161734488 0 0 0
201 2 -0.9038786919729025 22.374999999949438 8.054999999949862 0.8949999999490088 0 0 0
202 2 -0.9038747151740935 27.744999985918508 9.84499998893533 4.475000012571535 0 0 0
203 2 -0.9038769931251126 24.164999996114837 11.634999994986723 6.265000000640886 0 0 0
204 2 -0.9038779817792261 25.95499998562469 13.42500000245871 2.6850000024575915 0 0 0
205 2 -0.9038757102184533 24.165000007768366 13.425000013650244 4.474999984992487 0 0 0
206 2 -0.9038757477687911 27.74499998044496 11.635000016537408 2.6849999802907853 0 0 0
207 2 -0.9038771888038551 25.95499999227391 9.844999998981077 6.264999994454373 0 0 0
208 2 -0.9038747958659759 22.375000014079948 11.63500001106438 4.475000012569829 0 0 0
209 2 -0.9038774102022756 27.74500000633139 13.425000006330833 0.8949999936685937 0 0 0
210 2 -0.9038816221562815 24.16499999600031 8.054999998081135 2.6850000020705234 0 0 0
211 2 -0.9038742726368119 24.16500000134926 9.84500001024661 0.8949999927681769 0 0 0
212 2 -0.9038780744176198 27.745000013210923 8.054999986791412 6.265000011700954 0 0 0
213 2 -0.9038827359254374 25.954999986493696 8.054999998258632 4.474999996938302 0 0 0
214 2 -0.9038746519325017 22.374999986837576 13.425000013161435 6.265000011652158 0 0 0
215 2 -0.9038744543088435 22.37500001962734 9.844999983391121 2.6849999802173805 0 0 0
216 2 -0.9038763684818157 25.95499998650196 11.634999995553697 0.8949999984175578 0 0 0
217 3 1.807756356668821 28.639999960509552 7.159999945069079 1.6047594919577076e-08 0 0 0
218 3 1.807742000681839 28.639999992007233 10.740000007859496 3.5799999930950706 0 0 0
219 3 1.807753597588908 32.21999999235099 10.740000015848837 8.737317536144927e-08 0 0 0
220 3 1.807760037327794 32.21999992916469 7.159999906804869 3.5800000952900266 0 0 0
221 3 1.807765958524989 34.01000000787355 8.949999989766994 5.370000009544344 0 0 0
222 3 1.807751377062957 30.430000007933888 8.950000069688352 1.789999976252031 0 0 0
223 3 1.807751790352183 30.43000001537114 12.529999954427472 5.37000001703512 0 0 0
224 3 1.80775793314331 34.00999992036759 12.52999995451276 1.7899999834868785 0 0 0
225 2 -0.9038757710434214 29.534999993690615 8.054999993691009 0.89499999369054 0 0 0
226 2 -0.9038813521351148 34.90500000018502 9.844999991250594 4.47500001022105 0 0 0
227 2 -0.9038766915084575 31.325000000291713 11.634999996844 6.264999998933599 0 0 0
228 2 -0.9038805294178656 33.11500000181079 13.4250000101059 2.6850000101054285 0 0 0
229 2 -0.9038793049836004 31.325000011676014 13.425000011673879 4.474999986814992 0 0 0
230 2 -0.9038772671848823 34.9050000072365 11.635000001814442 2.6849999952824617 0 0 0
231 2 -0.9038797309807994 33.11500002045917 9.844999994321434 6.26499998979564 0 0 0
232 2 -0.9038736148980321 29.535000014031926 11.635000011014373 4.475000012521872 0 0 0
233 2 -0.9038753883191382 34.904999995951435 13.424999984071142 0.8950000159647735 0 0 0
234 2 -0.9038751678466344 31.32500000015999 8.054999999804757 2.68500000019453 0 0 0
235 2 -0.9038774153887652 31.32499999897461 9.845000001993458 0.8950000011783308 0 0 0
236 2 -0.9038838235853691 34.905000008680226 8.055000003237948 6.264999995369293 0 0 0
237 2 -0.9038818151121361 33.11500002103137 8.055000009110612 4.475000007794778 0 0 0
238 2 -0.9038747709871598 29.534999986790158 13.42500001320992 6.2650000117006 0 0 0
239 2 -0.9038732982344101 29.535000013344696 9.844999989673287 2.68499998650096 0 0 0
240 2 -0.9038800625210197 33.11500001535173 11.635000000571756 0.8950000034353534 0 0 0
241 3 1.807752251613558 35.79999997657773 14.32000012474414 8.335945267390342e-09 -1 0 0
242 3 1.807755092196579 5.466587449376447e-08 17.899999964876756 3.5799999701972505 0 0 0
243 3 1.807758168504068 3.5799999781855325 17.899999956888628 6.265249652415149e-08 0 0 0
244 3 1.807756335692765 3.5799999226571746 14.319999951916207 3.5799999225916697 0 0 0
245 3 1.807759465503864 5.370000041631931 16.110000196625798 5.37000002572134 0 0 0
246 3 1.80773926050418 1.7899999921007401 16.110000007810658 1.7899999920373348 0 0 0
247 3 1.807744786146271 1.7899999685285066 19.6900000116531 5.370000016866586 0 0 0
248 3 1.807748296697663 5.370000024818692 19.690000003700543 1.7899999764186385 0 0 0
249 2 -0.9038715214880493 0.8949999688621237 15.21499996890029 0.8949999688633015 0 0 0
250 2 -0.903886868590125 6.265000004804282 17.005000006197953 4.474999992481152 0 0 0
251 2 -0.9038742603133587 2.685000002908408 18.79500000297298 6.265000001363325 0 0 0
252 2 -0.9038721734857139 4.4749999992592935 20.584999999231343 2.6849999991923474 0 0 0
253 2 -0.9038715642984356 2.684999999192533 20.584999999230835 4.474999999259054 0 0 0
254 2 -0.9038761889918444 6.265000007547458 18.79499999678823 2.6850000090943817 0 0 0
255 2 -0.9038852475593088 4.474999998663555 17.005000000014157 6.264999998621908 0 0 0
256 2 -0.9038733238462641 0.8949999926923755 18.794999998692813 4.474999991300827 0 0 0
257 2 -0.9038763890338262 6.2650000180303556 20.585000019541148 0.894999980457573 0 0 0
258 2 -0.9038741493156829 2.6850000249299195 15.21499997506822 2.685000024930331 0 0 0
259 2 -0.9038760603055436 2.685000031066227 17.005000031065997 0.894999968933516 0 0 0
260 2 -0.9038783100694048 6.2650000243719415 15.214999974156378 6.265000024372967 0 0 0
261 2 -0.9038760968635503 4.474999999403352 15.215000000985006 4.474999999403652 0 0 0
262 2 -0.9038741227137683 0.8949999804818076 20.585000019516844 6.265000018006877 0 0 0
263 2 -0.9038749742932799 0.89499996895595 17.005000031041146 2.685000031042213 0 0 0
264 2 -0.9038750760068055 4.474999991276217 18.794999998668505 0.8949999926682409 0 0 0
265 3 1.807766771056117 7.159999921388331 14.319999984232869 3.985640983916738e-08 0 0 0
266 3 1.807762555792777 7.159999874358158 17.899999933192344 3.580000063010371 0 0 0
267 3 1.807756869260893 10.739999960132815 17.89999995656114 3.178472951503863e-08 0 0 0
268 3 1.807751133755671 10.740000000095263 14.320000015877634 3.580000000857355 0 0 0
269 3 1.807754965726901 12.529999954492677 16.110000015178727 5.3700000168429325 0 0 0
270 3 1.807761163084514 8.950000085503522 16.110000007834817 1.78999996043584 0 0 0
271 3 1.807755190450211 8.950000069324282 19.69000000481257 5.370000040800422 0 0 0
272 3 1.807749379746173 12.529999993704381 19.690000020515292 1.7900000237332767 0 0 0
273 2 -0.9038831388350504 8.054999993666067 15.214999993665938 0.8949999936656008 0 0 0
274 2 -0.9038775322947322 13.425000011649528 17.005000011647976 4.474999986839773 0 0 0
275 2 -0.9038779183916752 9.845000004939779 18.79500000396079 6.265000000567118 0 0 0
276 2 -0.9038751733002306 11.63500001656257 20.58499998042065 2.684999980265321 0 0 0
277 2 -0.9038741166596356 9.844999988887281 20.584999985870528 4.475000012620302 0 0 0
278 2 -0.903876357802324 13.425000008153837 18.794999997728738 2.685000008306691 0 0 0
279 2 -0.9038799024667006 11.634999997017454 17.00500000011634 6.26499999876159 0 0 0
280 2 -0.9038780901393372 8.055000004906153 18.795000010790393 4.4750000035874145 0 0 0
281 2 -0.9038752821511793 13.425000006306963 20.585000006307645 0.8949999936923709 0 0 0
282 2 -0.9038777759742167 9.844999989699758 15.215000013319338 2.68499998652508 0 0 0
283 2 -0.9038810124938531 9.845000008129734 17.005000005108084 0.8949999950429692 0 0 0
284 2 -0.9038760525046423 13.425000013185333 15.214999986813726 6.265000011676185 0 0 0
285 2 -0.9038774105892071 11.635000010990908 15.215000014006588 4.475000012497288 0 0 0
286 2 -0.9038797684707914 8.05499998683898 20.58500001316377 6.265000011652511 0 0 0
287 2 -0.9038806121823227 8.055000006014533 17.0049999939474 2.6849999939845035 0 0 0
288 2 -0.9038762131398821 11.634999995841609 18.795000004739336 0.8949999988563908 0 0 0
289 3 1.807762587872002 14.320000023770529 14.320000023771744 35.79999998445243 0 0 -1
290 3 1.807759497190156 14.320000023952174 17.900000003201356 3.579999992700671 0 0 0
291 3 1.807757526728738 17.899999995999256 17.899999995999742 35.79999999199112 0 0 -1
292 3 1.807759497064954 17.900000003201118 14.320000023952371 3.579999992701537 0 0 0
293 3 1.807761968331236 19.68999999661356 16.109999999909633 5.3700000014188864 0 0 0
294 3 1.807765913989533 16.10999999986937 16.10999999987085 1.7900000000055556 0 0 0
295 3 1.807761968285816 16.10999999990919 19.68999999661331 5.370000001418236 0 0 0
296 3 1.80775173616346 19.689999996457537 19.689999996456514 1.7899999995634905 0 0 0
297 2 -0.903882503260617 15.21499999990136 15.214999999900847 0.8949999999001479 0 0 0
298 2 -0.9038800200473956 20.584999999232508 17.004999999231252 4.474999999257944 0 0 0
299 2 -0.9038807853164841 17.00500000265938 18.795000003258053 6.265000001152617 0 0 0
300 2 -0.9038755704852696 18.79500000403569 20.585000001847227 2.6850000019988394 0 0 0
301 2 -0.9038800199555379 17.004999999231224 20.584999999232686 4.474999999258129 0 0 0
302 2 -0.9038755705778201 20.585000001847206 18.795000004035792 2.685000001998829 0 0 0
303 2 -0.9038807853567543 18.79500000325779 17.005000002659237 6.265000001152369 0 0 0
304 2 -0.9038816835780278 15.214999998719424 18.79500000460208 4.474999997362129 0 0 0
305 2 -0.9038738137851612 20.584999999999656 20.58499999999974 0.8949999999983593 0 0 0
306 2 -0.903881381187342 17.00500000004876 15.214999999949695 2.6850000000483027 0 0 0
307 2 -0.9038807799126974 17.004999999999644 17.004999999999246 0.894999999998326 0 0 0
308 2 -0.9038793576425457 20.58500000079255 15.214999999208164 6.264999999282383 0 0 0
309 2 -0.9038816835267405 18.795000004601942 15.214999998719177 4.474999997361904 0 0 0
310 2 -0.9038793575603519 15.214999999207935 20.585000000792867 6.264999999282863 0 0 0
311 2 -0.903881381286729 15.214999999950251 17.00500000004836 2.6850000000484098 0 0 0
312 2 -0.9038760928314371 18.79500000187812 18.79500000187799 0.8949999959941457 0 0 0
313 3 1.807753748704135 21.480000000031133 14.320000016007326 35.79999999225498 0 0 -1
314 3 1.807754312964142 21.480000000150138 17.899999995307436 3.5800000005275128 0 0 0
315 3 1.807749067556155 25.060000011084835 17.899999996802137 35.79999988249271 0 0 -1
316 3 1.807759242252992 25.060000020249717 14.320000023859404 3.579999992787642 0 0 0
317 3 1.807763686024628 26.850000007969545 16.109999999787924 5.3700000014713645 0 0 0
318 3 1.807757515623342 23.26999998725154 16.109999984016227 1.7900000158590421 0 0 0
319 3 1.807759075242232 23.270000003811486 19.689999996192455 5.370000001793331 0 0 0
320 3 1.807748285128289 26.850000023969102 19.69000001274761 1.7900000158567761 0 0 0
321 2 -0.9038778950386098 22.374999999974282 15.214999999975346 0.8949999999740901 0 0 0
322 2 -0.90388105496993 27.744999999230785 17.004999999230705 4.474999999258691 0 0 0
323 2 -0.9038791551208613 24.164999998757512 18.79500000124345 6.2650000031311155 0 0 0
324 2 -0.9038733535343653 25.954999991955273 20.58499999612748 2.684999996125541 0 0 0
325 2 -0.9038784794189695 24.16499999534971 20.585000001232522 4.474999997410971 0 0 0
326 2 -0.9038744778281059 27.74500000182059 18.795000004060824 2.685000001974343 0 0 0
327 2 -0.9038800525747981 25.954999991293796 17.004999996787944 6.264999995433734 0 0 0
328 2 -0.9038799139118161 22.374999998767144 18.795000004650525 4.474999997410916 0 0 0
329 2 -0.9038749607754901 27.74499999997423 20.584999999974983 0.895000000024309 0 0 0
330 2 -0.9038785479074052 24.16499999599051 15.214999998128262 2.6850000020236235 0 0 0
331 2 -0.903876340396309 24.164999983604666 17.004999989484773 0.8950000103229951 0 0 0
332 2 -0.9038808114243482 27.745000000815992 15.214999999184096 6.264999999307166 0 0 0
333 2 -0.9038819231108585 25.954999992649853 15.215000004415648 4.475000003058289 0 0 0
334 2 -0.9038783912618442 22.37499999923166 20.585000000768577 6.264999999258499 0 0 0
335 2 -0.9038775792327647 22.37500000002333 17.004999999976132 2.684999999975201 0 0 0
336 2 -0.9038734896004823 25.9550000024466 18.795000020245265 0.8950000143248753 0 0 0
337 3 1.807754650851662 28.640000007972752 14.32000000800111 1.6076107112183988e-10 0 0 0
338 3 1.807755431522783 28.64000000008445 17.89999999537481 3.5800000005275288 0 0 0
339 3 1.807763282892757 32.2199999759842 17.90000001181589 7.747898322918443e-09 0 0 0
340 3 1.807763324992302 32.21999999989815 14.32000002386487 3.579999992549352 0 0 0
341 3 1.807769205645749 34.00999995263132 16.10999998432373 5.370000017198403 0 0 0
342 3 1.807759559285171 30.429999999997314 16.109999999870777 1.7899999999418446 0 0 0
343 3 1.807759232063144 30.430000000005993 19.68999999664557 5.3700000015129925 0 0 0
344 3 1.80775649110211 34.00999993695281 19.68999999687235 1.7900000000669385 0 0 0