LAMMPS data file via write_data, version 23 Jun 2022, timestep = 0

3000 atoms
3 atom types

0 254.1845 xlo xhi
0 254.1845 ylo yhi
0 254.1845 zlo zhi

Masses

1 1.00784
2 15.9991
3 28.0855

Atoms # charge

1 3 0.1871387638956236 0 0 0 0 0 0
25 3 0.1871387638956236 50.8369 0 0 0 0 0
49 3 0.1871387638956236 101.6738 0 0 0 0 0
73 3 0.1871387638956236 152.51069999999999 0 0 0 0 0
97 3 0.1871387638956236 203.3476 0 0 0 0 0
3 3 0.1871387638956236 25.5254 25.5254 0 0 0 0
27 3 0.1871387638956236 76.3623 25.5254 0 0 0 0
51 3 0.1871387638956236 127.1992 25.5254 0 0 0 0
75 3 0.1871387638956236 178.03609999999998 25.5254 0 0 0 0
99 3 0.1871387638956236 228.873 25.5254 0 0 0 0
121 3 0.1871387638956236 0 50.8369 0 0 0 0
145 3 0.1871387638956236 50.8369 50.8369 0 0 0 0
169 3 0.1871387638956236 101.6738 50.8369 0 0 0 0
193 3 0.1871387638956236 152.51069999999999 50.8369 0 0 0 0
217 3 0.1871387638956236 203.3476 50.8369 0 0 0 0
123 3 0.1871387638956236 25.5254 76.3623 0 0 0 0
147 3 0.1871387638956236 76.3623 76.3623 0 0 0 0
171 3 0.1871387638956236 127.1992 76.3623 0 0 0 0
195 3 0.1871387638956236 178.03609999999998 76.3623 0 0 0 0
219 3 0.1871387638956236 228.873 76.3623 0 0 0 0
241 3 0.1871387638956236 0 101.6738 0 0 0 0
265 3 0.1871387638956236 50.8369 101.6738 0 0 0 0
289 3 0.1871387638956236 101.6738 101.6738 0 0 0 0
313 3 0.1871387638956236 152.51069999999999 101.6738 0 0 0 0
337 3 0.1871387638956236 203.3476 101.6738 0 0 0 0
243 3 0.1871387638956236 25.5254 127.1992 0 0 0 0
267 3 0.1871387638956236 76.3623 127.1992 0 0 0 0
291 3 0.1871387638956236 127.1992 127.1992 0 0 0 0
315 3 0.1871387638956236 178.03609999999998 127.1992 0 0 0 0
339 3 0.1871387638956236 228.873 127.1992 0 0 0 0
361 3 0.1871387638956236 0 152.51069999999999 0 0 0 0
385 3 0.1871387638956236 50.8369 152.51069999999999 0 0 0 0
409 3 0.1871387638956236 101.6738 152.51069999999999 0 0 0 0
433 3 0.1871387638956236 152.51069999999999 152.51069999999999 0 0 0 0
457 3 0.1871387638956236 203.3476 152.51069999999999 0 0 0 0
363 3 0.1871387638956236 25.5254 178.03609999999998 0 0 0 0
387 3 0.1871387638956236 76.3623 178.03609999999998 0 0 0 0
411 3 0.1871387638956236 127.1992 178.03609999999998 0 0 0 0
435 3 0.1871387638956236 178.03609999999998 178.03609999999998 0 0 0 0
459 3 0.1871387638956236 228.873 178.03609999999998 0 0 0 0
481 3 0.1871387638956236 0 203.3476 0 0 0 0
505 3 0.1871387638956236 50.8369 203.3476 0 0 0 0
529 3 0.1871387638956236 101.6738 203.3476 0 0 0 0
553 3 0.1871387638956236 152.51069999999999 203.3476 0 0 0 0
577 3 0.1871387638956236 203.3476 203.3476 0 0 0 0
483 3 0.1871387638956236 25.5254 228.873 0 0 0 0
507 3 0.1871387638956236 76.3623 228.873 0 0 0 0
531 3 0.1871387638956236 127.1992 228.873 0 0 0 0
555 3 0.1871387638956236 178.03609999999998 228.873 0 0 0 0
579 3 0.1871387638956236 228.873 228.873 0 0 0 0
9 2 -0.09356938194777081 6.38135 6.38135 6.38135 0 0 0
33 2 -0.09356938194777081 57.21825 6.38135 6.38135 0 0 0
57 2 -0.09356938194777081 108.05515 6.38135 6.38135 0 0 0
81 2 -0.09356938194777081 158.89204999999998 6.38135 6.38135 0 0 0
105 2 -0.09356938194777081 209.72895 6.38135 6.38135 0 0 0
19 2 -0.09356938194777081 19.14405 19.14405 6.38135 0 0 0
43 2 -0.09356938194777081 69.98095 19.14405 6.38135 0 0 0
67 2 -0.09356938194777081 120.81784999999999 19.14405 6.38135 0 0 0
91 2 -0.09356938194777081 171.65474999999998 19.14405 6.38135 0 0 0
115 2 -0.09356938194777081 222.49165 19.14405 6.38135 0 0 0
24 2 -0.09356938194777081 31.906749999999995 31.906749999999995 6.38135 0 0 0
48 2 -0.09356938194777081 82.74365 31.906749999999995 6.38135 0 0 0
72 2 -0.09356938194777081 133.58055 31.906749999999995 6.38135 0 0 0
96 2 -0.09356938194777081 184.41744999999997 31.906749999999995 6.38135 0 0 0
120 2 -0.09356938194777081 235.25435 31.906749999999995 6.38135 0 0 0
17 2 -0.09356938194777081 44.66945 44.66945 6.38135 0 0 0
41 2 -0.09356938194777081 95.50635 44.66945 6.38135 0 0 0
65 2 -0.09356938194777081 146.34325 44.66945 6.38135 0 0 0
89 2 -0.09356938194777081 197.18014999999997 44.66945 6.38135 0 0 0
113 2 -0.09356938194777081 248.01704999999998 44.66945 6.38135 0 0 0
129 2 -0.09356938194777081 6.38135 57.21825 6.38135 0 0 0
153 2 -0.09356938194777081 57.21825 57.21825 6.38135 0 0 0
177 2 -0.09356938194777081 108.05515 57.21825 6.38135 0 0 0
201 2 -0.09356938194777081 158.89204999999998 57.21825 6.38135 0 0 0
225 2 -0.09356938194777081 209.72895 57.21825 6.38135 0 0 0
139 2 -0.09356938194777081 19.14405 69.98095 6.38135 0 0 0
163 2 -0.09356938194777081 69.98095 69.98095 6.38135 0 0 0
187 2 -0.09356938194777081 120.81784999999999 69.98095 6.38135 0 0 0
211 2 -0.09356938194777081 171.65474999999998 69.98095 6.38135 0 0 0
235 2 -0.09356938194777081 222.49165 69.98095 6.38135 0 0 0
144 2 -0.09356938194777081 31.906749999999995 82.74365 6.38135 0 0 0
168 2 -0.09356938194777081 82.74365 82.74365 6.38135 0 0 0
192 2 -0.09356938194777081 133.58055 82.74365 6.38135 0 0 0
216 2 -0.09356938194777081 184.41744999999997 82.74365 6.38135 0 0 0
240 2 -0.09356938194777081 235.25435 82.74365 6.38135 0 0 0
137 2 -0.09356938194777081 44.66945 95.50635 6.38135 0 0 0
161 2 -0.09356938194777081 95.50635 95.50635 6.38135 0 0 0
185 2 -0.09356938194777081 146.34325 95.50635 6.38135 0 0 0
209 2 -0.09356938194777081 197.18014999999997 95.50635 6.38135 0 0 0
233 2 -0.09356938194777081 248.01704999999998 95.50635 6.38135 0 0 0
249 2 -0.09356938194777081 6.38135 108.05515 6.38135 0 0 0
273 2 -0.09356938194777081 57.21825 108.05515 6.38135 0 0 0
297 2 -0.09356938194777081 108.05515 108.05515 6.38135 0 0 0
321 2 -0.09356938194777081 158.89204999999998 108.05515 6.38135 0 0 0
345 2 -0.09356938194777081 209.72895 108.05515 6.38135 0 0 0
259 2 -0.09356938194777081 19.14405 120.81784999999999 6.38135 0 0 0
283 2 -0.09356938194777081 69.98095 120.81784999999999 6.38135 0 0 0
307 2 -0.09356938194777081 120.81784999999999 120.81784999999999 6.38135 0 0 0
331 2 -0.09356938194777081 171.65474999999998 120.81784999999999 6.38135 0 0 0
355 2 -0.09356938194777081 222.49165 120.81784999999999 6.38135 0 0 0
264 2 -0.09356938194777081 31.906749999999995 133.58055 6.38135 0 0 0
288 2 -0.09356938194777081 82.74365 133.58055 6.38135 0 0 0
312 2 -0.09356938194777081 133.58055 133.58055 6.38135 0 0 0
336 2 -0.09356938194777081 184.41744999999997 133.58055 6.38135 0 0 0
360 2 -0.09356938194777081 235.25435 133.58055 6.38135 0 0 0
257 2 -0.09356938194777081 44.66945 146.34325 6.38135 0 0 0
281 2 -0.09356938194777081 95.50635 146.34325 6.38135 0 0 0
305 2 -0.09356938194777081 146.34325 146.34325 6.38135 0 0 0
329 2 -0.09356938194777081 197.18014999999997 146.34325 6.38135 0 0 0
353 2 -0.09356938194777081 248.01704999999998 146.34325 6.38135 0 0 0
369 2 -0.09356938194777081 6.38135 158.89204999999998 6.38135 0 0 0
393 2 -0.09356938194777081 57.21825 158.89204999999998 6.38135 0 0 0
417 2 -0.09356938194777081 108.05515 158.89204999999998 6.38135 0 0 0
441 2 -0.09356938194777081 158.89204999999998 158.89204999999998 6.38135 0 0 0
465 2 -0.09356938194777081 209.72895 158.89204999999998 6.38135 0 0 0
379 2 -0.09356938194777081 19.14405 171.65474999999998 6.38135 0 0 0
403 2 -0.09356938194777081 69.98095 171.65474999999998 6.38135 0 0 0
427 2 -0.09356938194777081 120.81784999999999 171.65474999999998 6.38135 0 0 0
451 2 -0.09356938194777081 171.65474999999998 171.65474999999998 6.38135 0 0 0
475 2 -0.09356938194777081 222.49165 171.65474999999998 6.38135 0 0 0
384 2 -0.09356938194777081 31.906749999999995 184.41744999999997 6.38135 0 0 0
408 2 -0.09356938194777081 82.74365 184.41744999999997 6.38135 0 0 0
432 2 -0.09356938194777081 133.58055 184.41744999999997 6.38135 0 0 0
456 2 -0.09356938194777081 184.41744999999997 184.41744999999997 6.38135 0 0 0
480 2 -0.09356938194777081 235.25435 184.41744999999997 6.38135 0 0 0
377 2 -0.09356938194777081 44.66945 197.18014999999997 6.38135 0 0 0
401 2 -0.09356938194777081 95.50635 197.18014999999997 6.38135 0 0 0
425 2 -0.09356938194777081 146.34325 197.18014999999997 6.38135 0 0 0
449 2 -0.09356938194777081 197.18014999999997 197.18014999999997 6.38135 0 0 0
473 2 -0.09356938194777081 248.01704999999998 197.18014999999997 6.38135 0 0 0
489 2 -0.09356938194777081 6.38135 209.72895 6.38135 0 0 0
513 2 -0.09356938194777081 57.21825 209.72895 6.38135 0 0 0
537 2 -0.09356938194777081 108.05515 209.72895 6.38135 0 0 0
561 2 -0.09356938194777081 158.89204999999998 209.72895 6.38135 0 0 0
585 2 -0.09356938194777081 209.72895 209.72895 6.38135 0 0 0
499 2 -0.09356938194777081 19.14405 222.49165 6.38135 0 0 0
523 2 -0.09356938194777081 69.98095 222.49165 6.38135 0 0 0
547 2 -0.09356938194777081 120.81784999999999 222.49165 6.38135 0 0 0
571 2 -0.09356938194777081 171.65474999999998 222.49165 6.38135 0 0 0
595 2 -0.09356938194777081 222.49165 222.49165 6.38135 0 0 0
504 2 -0.09356938194777081 31.906749999999995 235.25435 6.38135 0 0 0
528 2 -0.09356938194777081 82.74365 235.25435 6.38135 0 0 0
552 2 -0.09356938194777081 133.58055 235.25435 6.38135 0 0 0
576 2 -0.09356938194777081 184.41744999999997 235.25435 6.38135 0 0 0
600 2 -0.09356938194777081 235.25435 235.25435 6.38135 0 0 0
497 2 -0.09356938194777081 44.66945 248.01704999999998 6.38135 0 0 0
521 2 -0.09356938194777081 95.50635 248.01704999999998 6.38135 0 0 0
545 2 -0.09356938194777081 146.34325 248.01704999999998 6.38135 0 0 0
569 2 -0.09356938194777081 197.18014999999997 248.01704999999998 6.38135 0 0 0
593 2 -0.09356938194777081 248.01704999999998 248.01704999999998 6.38135 0 0 0
6 3 0.1871387638956236 12.7627 12.7627 12.7627 0 0 0
30 3 0.1871387638956236 63.5996 12.7627 12.7627 0 0 0
54 3 0.1871387638956236 114.4365 12.7627 12.7627 0 0 0
78 3 0.1871387638956236 165.27339999999998 12.7627 12.7627 0 0 0
102 3 0.1871387638956236 216.1103 12.7627 12.7627 0 0 0
8 3 0.1871387638956236 38.2881 38.2881 12.7627 0 0 0
32 3 0.1871387638956236 89.125 38.2881 12.7627 0 0 0
56 3 0.1871387638956236 139.9619 38.2881 12.7627 0 0 0
80 3 0.1871387638956236 190.79879999999997 38.2881 12.7627 0 0 0
104 3 0.1871387638956236 241.63569999999999 38.2881 12.7627 0 0 0
126 3 0.1871387638956236 12.7627 63.5996 12.7627 0 0 0
150 3 0.1871387638956236 63.5996 63.5996 12.7627 0 0 0
174 3 0.1871387638956236 114.4365 63.5996 12.7627 0 0 0
198 3 0.1871387638956236 165.27339999999998 63.5996 12.7627 0 0 0
222 3 0.1871387638956236 216.1103 63.5996 12.7627 0 0 0
128 3 0.1871387638956236 38.2881 89.125 12.7627 0 0 0
152 3 0.1871387638956236 89.125 89.125 12.7627 0 0 0
176 3 0.1871387638956236 139.9619 89.125 12.7627 0 0 0
200 3 0.1871387638956236 190.79879999999997 89.125 12.7627 0 0 0
224 3 0.1871387638956236 241.63569999999999 89.125 12.7627 0 0 0
246 3 0.1871387638956236 12.7627 114.4365 12.7627 0 0 0
270 3 0.1871387638956236 63.5996 114.4365 12.7627 0 0 0
294 3 0.1871387638956236 114.4365 114.4365 12.7627 0 0 0
318 3 0.1871387638956236 165.27339999999998 114.4365 12.7627 0 0 0
342 3 0.1871387638956236 216.1103 114.4365 12.7627 0 0 0
248 3 0.1871387638956236 38.2881 139.9619 12.7627 0 0 0
272 3 0.1871387638956236 89.125 139.9619 12.7627 0 0 0
296 3 0.1871387638956236 139.9619 139.9619 12.7627 0 0 0
320 3 0.1871387638956236 190.79879999999997 139.9619 12.7627 0 0 0
344 3 0.1871387638956236 241.63569999999999 139.9619 12.7627 0 0 0
366 3 0.1871387638956236 12.7627 165.27339999999998 12.7627 0 0 0
390 3 0.1871387638956236 63.5996 165.27339999999998 12.7627 0 0 0
414 3 0.1871387638956236 114.4365 165.27339999999998 12.7627 0 0 0
438 3 0.1871387638956236 165.27339999999998 165.27339999999998 12.7627 0 0 0
462 3 0.1871387638956236 216.1103 165.27339999999998 12.7627 0 0 0
368 3 0.1871387638956236 38.2881 190.79879999999997 12.7627 0 0 0
392 3 0.1871387638956236 89.125 190.79879999999997 12.7627 0 0 0
416 3 0.1871387638956236 139.9619 190.79879999999997 12.7627 0 0 0
440 3 0.1871387638956236 190.79879999999997 190.79879999999997 12.7627 0 0 0
464 3 0.1871387638956236 241.63569999999999 190.79879999999997 12.7627 0 0 0
486 3 0.1871387638956236 12.7627 216.1103 12.7627 0 0 0
510 3 0.1871387638956236 63.5996 216.1103 12.7627 0 0 0
534 3 0.1871387638956236 114.4365 216.1103 12.7627 0 0 0
558 3 0.1871387638956236 165.27339999999998 216.1103 12.7627 0 0 0
582 3 0.1871387638956236 216.1103 216.1103 12.7627 0 0 0
488 3 0.1871387638956236 38.2881 241.63569999999999 12.7627 0 0 0
512 3 0.1871387638956236 89.125 241.63569999999999 12.7627 0 0 0
536 3 0.1871387638956236 139.9619 241.63569999999999 12.7627 0 0 0
560 3 0.1871387638956236 190.79879999999997 241.63569999999999 12.7627 0 0 0
584 3 0.1871387638956236 241.63569999999999 241.63569999999999 12.7627 0 0 0
18 2 -0.09356938194777081 19.14405 6.38135 19.14405 0 0 0
42 2 -0.09356938194777081 69.98095 6.38135 19.14405 0 0 0
66 2 -0.09356938194777081 120.81784999999999 6.38135 19.14405 0 0 0
90 2 -0.09356938194777081 171.65474999999998 6.38135 19.14405 0 0 0
114 2 -0.09356938194777081 222.49165 6.38135 19.14405 0 0 0
23 2 -0.09356938194777081 6.38135 19.14405 19.14405 0 0 0
47 2 -0.09356938194777081 57.21825 19.14405 19.14405 0 0 0
71 2 -0.09356938194777081 108.05515 19.14405 19.14405 0 0 0
95 2 -0.09356938194777081 158.89204999999998 19.14405 19.14405 0 0 0
119 2 -0.09356938194777081 209.72895 19.14405 19.14405 0 0 0
14 2 -0.09356938194777081 44.66945 31.906749999999995 19.14405 0 0 0
38 2 -0.09356938194777081 95.50635 31.906749999999995 19.14405 0 0 0
62 2 -0.09356938194777081 146.34325 31.906749999999995 19.14405 0 0 0
86 2 -0.09356938194777081 197.18014999999997 31.906749999999995 19.14405 0 0 0
110 2 -0.09356938194777081 248.01704999999998 31.906749999999995 19.14405 0 0 0
12 2 -0.09356938194777081 31.906749999999995 44.66945 19.14405 0 0 0
36 2 -0.09356938194777081 82.74365 44.66945 19.14405 0 0 0
60 2 -0.09356938194777081 133.58055 44.66945 19.14405 0 0 0
84 2 -0.09356938194777081 184.41744999999997 44.66945 19.14405 0 0 0
108 2 -0.09356938194777081 235.25435 44.66945 19.14405 0 0 0
138 2 -0.09356938194777081 19.14405 57.21825 19.14405 0 0 0
162 2 -0.09356938194777081 69.98095 57.21825 19.14405 0 0 0
186 2 -0.09356938194777081 120.81784999999999 57.21825 19.14405 0 0 0
210 2 -0.09356938194777081 171.65474999999998 57.21825 19.14405 0 0 0
234 2 -0.09356938194777081 222.49165 57.21825 19.14405 0 0 0
143 2 -0.09356938194777081 6.38135 69.98095 19.14405 0 0 0
167 2 -0.09356938194777081 57.21825 69.98095 19.14405 0 0 0
191 2 -0.09356938194777081 108.05515 69.98095 19.14405 0 0 0
215 2 -0.09356938194777081 158.89204999999998 69.98095 19.14405 0 0 0
239 2 -0.09356938194777081 209.72895 69.98095 19.14405 0 0 0
134 2 -0.09356938194777081 44.66945 82.74365 19.14405 0 0 0
158 2 -0.09356938194777081 95.50635 82.74365 19.14405 0 0 0
182 2 -0.09356938194777081 146.34325 82.74365 19.14405 0 0 0
206 2 -0.09356938194777081 197.18014999999997 82.74365 19.14405 0 0 0
230 2 -0.09356938194777081 248.01704999999998 82.74365 19.14405 0 0 0
132 2 -0.09356938194777081 31.906749999999995 95.50635 19.14405 0 0 0
156 2 -0.09356938194777081 82.74365 95.50635 19.14405 0 0 0
180 2 -0.09356938194777081 133.58055 95.50635 19.14405 0 0 0
204 2 -0.09356938194777081 184.41744999999997 95.50635 19.14405 0 0 0
228 2 -0.09356938194777081 235.25435 95.50635 19.14405 0 0 0
258 2 -0.09356938194777081 19.14405 108.05515 19.14405 0 0 0
282 2 -0.09356938194777081 69.98095 108.05515 19.14405 0 0 0
306 2 -0.09356938194777081 120.81784999999999 108.05515 19.14405 0 0 0
330 2 -0.09356938194777081 171.65474999999998 108.05515 19.14405 0 0 0
354 2 -0.09356938194777081 222.49165 108.05515 19.14405 0 0 0
263 2 -0.09356938194777081 6.38135 120.81784999999999 19.14405 0 0 0
287 2 -0.09356938194777081 57.21825 120.81784999999999 19.14405 0 0 0
311 2 -0.09356938194777081 108.05515 120.81784999999999 19.14405 0 0 0
335 2 -0.09356938194777081 158.89204999999998 120.81784999999999 19.14405 0 0 0
359 2 -0.09356938194777081 209.72895 120.81784999999999 19.14405 0 0 0
254 2 -0.09356938194777081 44.66945 133.58055 19.14405 0 0 0
278 2 -0.09356938194777081 95.50635 133.58055 19.14405 0 0 0
302 2 -0.09356938194777081 146.34325 133.58055 19.14405 0 0 0
326 2 -0.09356938194777081 197.18014999999997 133.58055 19.14405 0 0 0
350 2 -0.09356938194777081 248.01704999999998 133.58055 19.14405 0 0 0
252 2 -0.09356938194777081 31.906749999999995 146.34325 19.14405 0 0 0
276 2 -0.09356938194777081 82.74365 146.34325 19.14405 0 0 0
300 2 -0.09356938194777081 133.58055 146.34325 19.14405 0 0 0
324 2 -0.09356938194777081 184.41744999999997 146.34325 19.14405 0 0 0
348 2 -0.09356938194777081 235.25435 146.34325 19.14405 0 0 0
378 2 -0.09356938194777081 19.14405 158.89204999999998 19.14405 0 0 0
402 2 -0.09356938194777081 69.98095 158.89204999999998 19.14405 0 0 0
426 2 -0.09356938194777081 120.81784999999999 158.89204999999998 19.14405 0 0 0
450 2 -0.09356938194777081 171.65474999999998 158.89204999999998 19.14405 0 0 0
474 2 -0.09356938194777081 222.49165 158.89204999999998 19.14405 0 0 0
383 2 -0.09356938194777081 6.38135 171.65474999999998 19.14405 0 0 0
407 2 -0.09356938194777081 57.21825 171.65474999999998 19.14405 0 0 0
431 2 -0.09356938194777081 108.05515 171.65474999999998 19.14405 0 0 0
455 2 -0.09356938194777081 158.89204999999998 171.65474999999998 19.14405 0 0 0
479 2 -0.09356938194777081 209.72895 171.65474999999998 19.14405 0 0 0
374 2 -0.09356938194777081 44.66945 184.41744999999997 19.14405 0 0 0
398 2 -0.09356938194777081 95.50635 184.41744999999997 19.14405 0 0 0
422 2 -0.09356938194777081 146.34325 184.41744999999997 19.14405 0 0 0
446 2 -0.09356938194777081 197.18014999999997 184.41744999999997 19.14405 0 0 0
470 2 -0.09356938194777081 248.01704999999998 184.41744999999997 19.14405 0 0 0
372 2 -0.09356938194777081 31.906749999999995 197.18014999999997 19.14405 0 0 0
396 2 -0.09356938194777081 82.74365 197.18014999999997 19.14405 0 0 0
420 2 -0.09356938194777081 133.58055 197.18014999999997 19.14405 0 0 0
444 2 -0.09356938194777081 184.41744999999997 197.18014999999997 19.14405 0 0 0
468 2 -0.09356938194777081 235.25435 197.18014999999997 19.14405 0 0 0
498 2 -0.09356938194777081 19.14405 209.72895 19.14405 0 0 0
522 2 -0.09356938194777081 69.98095 209.72895 19.14405 0 0 0
546 2 -0.09356938194777081 120.81784999999999 209.72895 19.14405 0 0 0
570 2 -0.09356938194777081 171.65474999999998 209.72895 19.14405 0 0 0
594 2 -0.09356938194777081 222.49165 209.72895 19.14405 0 0 0
503 2 -0.09356938194777081 6.38135 222.49165 19.14405 0 0 0
527 2 -0.09356938194777081 57.21825 222.49165 19.14405 0 0 0
551 2 -0.09356938194777081 108.05515 222.49165 19.14405 0 0 0
575 2 -0.09356938194777081 158.89204999999998 222.49165 19.14405 0 0 0
599 2 -0.09356938194777081 209.72895 222.49165 19.14405 0 0 0
494 2 -0.09356938194777081 44.66945 235.25435 19.14405 0 0 0
518 2 -0.09356938194777081 95.50635 235.25435 19.14405 0 0 0
542 2 -0.09356938194777081 146.34325 235.25435 19.14405 0 0 0
566 2 -0.09356938194777081 197.18014999999997 235.25435 19.14405 0 0 0
590 2 -0.09356938194777081 248.01704999999998 235.25435 19.14405 0 0 0
492 2 -0.09356938194777081 31.906749999999995 248.01704999999998 19.14405 0 0 0
516 2 -0.09356938194777081 82.74365 248.01704999999998 19.14405 0 0 0
540 2 -0.09356938194777081 133.58055 248.01704999999998 19.14405 0 0 0
564 2 -0.09356938194777081 184.41744999999997 248.01704999999998 19.14405 0 0 0
588 2 -0.09356938194777081 235.25435 248.01704999999998 19.14405 0 0 0
4 3 0.1871387638956236 25.5254 0 25.5254 0 0 0
28 3 0.1871387638956236 76.3623 0 25.5254 0 0 0
52 3 0.1871387638956236 127.1992 0 25.5254 0 0 0
76 3 0.1871387638956236 178.03609999999998 0 25.5254 0 0 0
100 3 0.1871387638956236 228.873 0 25.5254 0 0 0
2 3 0.1871387638956236 0 25.5254 25.5254 0 0 0
26 3 0.1871387638956236 50.8369 25.5254 25.5254 0 0 0
50 3 0.1871387638956236 101.6738 25.5254 25.5254 0 0 0
74 3 0.1871387638956236 152.51069999999999 25.5254 25.5254 0 0 0
98 3 0.1871387638956236 203.3476 25.5254 25.5254 0 0 0
124 3 0.1871387638956236 25.5254 50.8369 25.5254 0 0 0
148 3 0.1871387638956236 76.3623 50.8369 25.5254 0 0 0
172 3 0.1871387638956236 127.1992 50.8369 25.5254 0 0 0
196 3 0.1871387638956236 178.03609999999998 50.8369 25.5254 0 0 0
220 3 0.1871387638956236 228.873 50.8369 25.5254 0 0 0
122 3 0.1871387638956236 0 76.3623 25.5254 0 0 0
146 3 0.1871387638956236 50.8369 76.3623 25.5254 0 0 0
170 3 0.1871387638956236 101.6738 76.3623 25.5254 0 0 0
194 3 0.1871387638956236 152.51069999999999 76.3623 25.5254 0 0 0
218 3 0.1871387638956236 203.3476 76.3623 25.5254 0 0 0
244 3 0.1871387638956236 25.5254 101.6738 25.5254 0 0 0
268 3 0.1871387638956236 76.3623 101.6738 25.5254 0 0 0
292 3 0.1871387638956236 127.1992 101.6738 25.5254 0 0 0
316 3 0.1871387638956236 178.03609999999998 101.6738 25.5254 0 0 0
340 3 0.1871387638956236 228.873 101.6738 25.5254 0 0 0
242 3 0.1871387638956236 0 127.1992 25.5254 0 0 0
266 3 0.1871387638956236 50.8369 127.1992 25.5254 0 0 0
290 3 0.1871387638956236 101.6738 127.1992 25.5254 0 0 0
314 3 0.1871387638956236 152.51069999999999 127.1992 25.5254 0 0 0
338 3 0.1871387638956236 203.3476 127.1992 25.5254 0 0 0
364 3 0.1871387638956236 25.5254 152.51069999999999 25.5254 0 0 0
388 3 0.1871387638956236 76.3623 152.51069999999999 25.5254 0 0 0
412 3 0.1871387638956236 127.1992 152.51069999999999 25.5254 0 0 0
436 3 0.1871387638956236 178.03609999999998 152.51069999999999 25.5254 0 0 0
460 3 0.1871387638956236 228.873 152.51069999999999 25.5254 0 0 0
362 3 0.1871387638956236 0 178.03609999999998 25.5254 0 0 0
386 3 0.1871387638956236 50.8369 178.03609999999998 25.5254 0 0 0
410 3 0.1871387638956236 101.6738 178.03609999999998 25.5254 0 0 0
434 3 0.1871387638956236 152.51069999999999 178.03609999999998 25.5254 0 0 0
458 3 0.1871387638956236 203.3476 178.03609999999998 25.5254 0 0 0
484 3 0.1871387638956236 25.5254 203.3476 25.5254 0 0 0
508 3 0.1871387638956236 76.3623 203.3476 25.5254 0 0 0
532 3 0.1871387638956236 127.1992 203.3476 25.5254 0 0 0
556 3 0.1871387638956236 178.03609999999998 203.3476 25.5254 0 0 0
580 3 0.1871387638956236 228.873 203.3476 25.5254 0 0 0
482 3 0.1871387638956236 0 228.873 25.5254 0 0 0
506 3 0.1871387638956236 50.8369 228.873 25.5254 0 0 0
530 3 0.1871387638956236 101.6738 228.873 25.5254 0 0 0
554 3 0.1871387638956236 152.51069999999999 228.873 25.5254 0 0 0
578 3 0.1871387638956236 203.3476 228.873 25.5254 0 0 0
21 2 -0.09356938194777081 31.906749999999995 6.38135 31.906749999999995 0 0 0
45 2 -0.09356938194777081 82.74365 6.38135 31.906749999999995 0 0 0
69 2 -0.09356938194777081 133.58055 6.38135 31.906749999999995 0 0 0
93 2 -0.09356938194777081 184.41744999999997 6.38135 31.906749999999995 0 0 0
117 2 -0.09356938194777081 235.25435 6.38135 31.906749999999995 0 0 0
10 2 -0.09356938194777081 44.66945 19.14405 31.906749999999995 0 0 0
34 2 -0.09356938194777081 95.50635 19.14405 31.906749999999995 0 0 0
58 2 -0.09356938194777081 146.34325 19.14405 31.906749999999995 0 0 0
82 2 -0.09356938194777081 197.18014999999997 19.14405 31.906749999999995 0 0 0
106 2 -0.09356938194777081 248.01704999999998 19.14405 31.906749999999995 0 0 0
16 2 -0.09356938194777081 6.38135 31.906749999999995 31.906749999999995 0 0 0
40 2 -0.09356938194777081 57.21825 31.906749999999995 31.906749999999995 0 0 0
64 2 -0.09356938194777081 108.05515 31.906749999999995 31.906749999999995 0 0 0
88 2 -0.09356938194777081 158.89204999999998 31.906749999999995 31.906749999999995 0 0 0
112 2 -0.09356938194777081 209.72895 31.906749999999995 31.906749999999995 0 0 0
13 2 -0.09356938194777081 19.14405 44.66945 31.906749999999995 0 0 0
37 2 -0.09356938194777081 69.98095 44.66945 31.906749999999995 0 0 0
61 2 -0.09356938194777081 120.81784999999999 44.66945 31.906749999999995 0 0 0
85 2 -0.09356938194777081 171.65474999999998 44.66945 31.906749999999995 0 0 0
109 2 -0.09356938194777081 222.49165 44.66945 31.906749999999995 0 0 0
141 2 -0.09356938194777081 31.906749999999995 57.21825 31.906749999999995 0 0 0
165 2 -0.09356938194777081 82.74365 57.21825 31.906749999999995 0 0 0
189 2 -0.09356938194777081 133.58055 57.21825 31.906749999999995 0 0 0
213 2 -0.09356938194777081 184.41744999999997 57.21825 31.906749999999995 0 0 0
237 2 -0.09356938194777081 235.25435 57.21825 31.906749999999995 0 0 0
130 2 -0.09356938194777081 44.66945 69.98095 31.906749999999995 0 0 0
154 2 -0.09356938194777081 95.50635 69.98095 31.906749999999995 0 0 0
178 2 -0.09356938194777081 146.34325 69.98095 31.906749999999995 0 0 0
202 2 -0.09356938194777081 197.18014999999997 69.98095 31.906749999999995 0 0 0
226 2 -0.09356938194777081 248.01704999999998 69.98095 31.906749999999995 0 0 0
136 2 -0.09356938194777081 6.38135 82.74365 31.906749999999995 0 0 0
160 2 -0.09356938194777081 57.21825 82.74365 31.906749999999995 0 0 0
184 2 -0.09356938194777081 108.05515 82.74365 31.906749999999995 0 0 0
208 2 -0.09356938194777081 158.89204999999998 82.74365 31.906749999999995 0 0 0
232 2 -0.09356938194777081 209.72895 82.74365 31.906749999999995 0 0 0
133 2 -0.09356938194777081 19.14405 95.50635 31.906749999999995 0 0 0
157 2 -0.09356938194777081 69.98095 95.50635 31.906749999999995 0 0 0
181 2 -0.09356938194777081 120.81784999999999 95.50635 31.906749999999995 0 0 0
205 2 -0.09356938194777081 171.65474999999998 95.50635 31.906749999999995 0 0 0
229 2 -0.09356938194777081 222.49165 95.50635 31.906749999999995 0 0 0
261 2 -0.09356938194777081 31.906749999999995 108.05515 31.906749999999995 0 0 0
285 2 -0.09356938194777081 82.74365 108.05515 31.906749999999995 0 0 0
309 2 -0.09356938194777081 133.58055 108.05515 31.906749999999995 0 0 0
333 2 -0.09356938194777081 184.41744999999997 108.05515 31.906749999999995 0 0 0
357 2 -0.09356938194777081 235.25435 108.05515 31.906749999999995 0 0 0
250 2 -0.09356938194777081 44.66945 120.81784999999999 31.906749999999995 0 0 0
274 2 -0.09356938194777081 95.50635 120.81784999999999 31.906749999999995 0 0 0
298 2 -0.09356938194777081 146.34325 120.81784999999999 31.906749999999995 0 0 0
322 2 -0.09356938194777081 197.18014999999997 120.81784999999999 31.906749999999995 0 0 0
346 2 -0.09356938194777081 248.01704999999998 120.81784999999999 31.906749999999995 0 0 0
256 2 -0.09356938194777081 6.38135 133.58055 31.906749999999995 0 0 0
280 2 -0.09356938194777081 57.21825 133.58055 31.906749999999995 0 0 0
304 2 -0.09356938194777081 108.05515 133.58055 31.906749999999995 0 0 0
328 2 -0.09356938194777081 158.89204999999998 133.58055 31.906749999999995 0 0 0
352 2 -0.09356938194777081 209.72895 133.58055 31.906749999999995 0 0 0
253 2 -0.09356938194777081 19.14405 146.34325 31.906749999999995 0 0 0
277 2 -0.09356938194777081 69.98095 146.34325 31.906749999999995 0 0 0
301 2 -0.09356938194777081 120.81784999999999 146.34325 31.906749999999995 0 0 0
325 2 -0.09356938194777081 171.65474999999998 146.34325 31.906749999999995 0 0 0
349 2 -0.09356938194777081 222.49165 146.34325 31.906749999999995 0 0 0
381 2 -0.09356938194777081 31.906749999999995 158.89204999999998 31.906749999999995 0 0 0
405 2 -0.09356938194777081 82.74365 158.89204999999998 31.906749999999995 0 0 0
429 2 -0.09356938194777081 133.58055 158.89204999999998 31.906749999999995 0 0 0
453 2 -0.09356938194777081 184.41744999999997 158.89204999999998 31.906749999999995 0 0 0
477 2 -0.09356938194777081 235.25435 158.89204999999998 31.906749999999995 0 0 0
370 2 -0.09356938194777081 44.66945 171.65474999999998 31.906749999999995 0 0 0
394 2 -0.09356938194777081 95.50635 171.65474999999998 31.906749999999995 0 0 0
418 2 -0.09356938194777081 146.34325 171.65474999999998 31.906749999999995 0 0 0
442 2 -0.09356938194777081 197.18014999999997 171.65474999999998 31.906749999999995 0 0 0
466 2 -0.09356938194777081 248.01704999999998 171.65474999999998 31.906749999999995 0 0 0
376 2 -0.09356938194777081 6.38135 184.41744999999997 31.906749999999995 0 0 0
400 2 -0.09356938194777081 57.21825 184.41744999999997 31.906749999999995 0 0 0
424 2 -0.09356938194777081 108.05515 184.41744999999997 31.906749999999995 0 0 0
448 2 -0.09356938194777081 158.89204999999998 184.41744999999997 31.906749999999995 0 0 0
472 2 -0.09356938194777081 209.72895 184.41744999999997 31.906749999999995 0 0 0
373 2 -0.09356938194777081 19.14405 197.18014999999997 31.906749999999995 0 0 0
397 2 -0.09356938194777081 69.98095 197.18014999999997 31.906749999999995 0 0 0
421 2 -0.09356938194777081 120.81784999999999 197.18014999999997 31.906749999999995 0 0 0
445 2 -0.09356938194777081 171.65474999999998 197.18014999999997 31.906749999999995 0 0 0
469 2 -0.09356938194777081 222.49165 197.18014999999997 31.906749999999995 0 0 0
501 2 -0.09356938194777081 31.906749999999995 209.72895 31.906749999999995 0 0 0
525 2 -0.09356938194777081 82.74365 209.72895 31.906749999999995 0 0 0
549 2 -0.09356938194777081 133.58055 209.72895 31.906749999999995 0 0 0
573 2 -0.09356938194777081 184.41744999999997 209.72895 31.906749999999995 0 0 0
597 2 -0.09356938194777081 235.25435 209.72895 31.906749999999995 0 0 0
490 2 -0.09356938194777081 44.66945 222.49165 31.906749999999995 0 0 0
514 2 -0.09356938194777081 95.50635 222.49165 31.906749999999995 0 0 0
538 2 -0.09356938194777081 146.34325 222.49165 31.906749999999995 0 0 0
562 2 -0.09356938194777081 197.18014999999997 222.49165 31.906749999999995 0 0 0
586 2 -0.09356938194777081 248.01704999999998 222.49165 31.906749999999995 0 0 0
496 2 -0.09356938194777081 6.38135 235.25435 31.906749999999995 0 0 0
520 2 -0.09356938194777081 57.21825 235.25435 31.906749999999995 0 0 0
544 2 -0.09356938194777081 108.05515 235.25435 31.906749999999995 0 0 0
568 2 -0.09356938194777081 158.89204999999998 235.25435 31.906749999999995 0 0 0
592 2 -0.09356938194777081 209.72895 235.25435 31.906749999999995 0 0 0
493 2 -0.09356938194777081 19.14405 248.01704999999998 31.906749999999995 0 0 0
517 2 -0.09356938194777081 69.98095 248.01704999999998 31.906749999999995 0 0 0
541 2 -0.09356938194777081 120.81784999999999 248.01704999999998 31.906749999999995 0 0 0
565 2 -0.09356938194777081 171.65474999999998 248.01704999999998 31.906749999999995 0 0 0
589 2 -0.09356938194777081 222.49165 248.01704999999998 31.906749999999995 0 0 0