LAMMPS data file via write_data, version 23 Jun 2022, timestep = 0

24 atoms
3 atom types

0 7.13 xlo xhi
0 7.13 ylo yhi
0 7.13 zlo zhi

Masses

1 1.00784
2 15.9991
3 28.0855

Atoms # charge

1 3 1.853000325128262 0 0 0 0 0 0
3 3 1.853000325128265 3.565 3.565 0 0 0 0
6 3 1.853000325128256 1.7825 1.7825 1.7825 0 0 0
8 3 1.853000325128257 5.3475 5.3475 1.7825 0 0 0
9 2 -0.9265001625641249 0.89125 0.89125 0.89125 0 0 0
12 2 -0.9265001625641281 4.45625 6.23875 2.67375 0 0 0
14 2 -0.9265001625641296 6.23875 4.45625 2.67375 0 0 0
17 2 -0.9265001625641327 6.23875 6.23875 0.89125 0 0 0
18 2 -0.9265001625641296 2.67375 0.89125 2.67375 0 0 0
19 2 -0.9265001625641294 2.67375 2.67375 0.89125 0 0 0
23 2 -0.9265001625641335 0.89125 2.67375 2.67375 0 0 0
24 2 -0.9265001625641327 4.45625 4.45625 0.89125 0 0 0
2 3 1.853000325128268 0 3.565 3.565 0 0 0
4 3 1.853000325128264 3.565 0 3.565 0 0 0
5 3 1.853000325128261 5.3475 1.7825 5.3475 0 0 0
7 3 1.853000325128262 1.7825 5.3475 5.3475 0 0 0
10 2 -0.9265001625641319 6.23875 2.67375 4.45625 0 0 0
11 2 -0.9265001625641281 2.67375 4.45625 6.23875 0 0 0
13 2 -0.9265001625641305 2.67375 6.23875 4.45625 0 0 0
15 2 -0.9265001625641281 4.45625 2.67375 6.23875 0 0 0
16 2 -0.926500162564134 0.89125 4.45625 4.45625 0 0 0
20 2 -0.9265001625641333 6.23875 0.89125 6.23875 0 0 0
21 2 -0.9265001625641348 4.45625 0.89125 4.45625 0 0 0
22 2 -0.9265001625641325 0.89125 6.23875 6.23875 0 0 0

Velocities

1 0 0 0
3 0 0 0
6 0 0 0
8 0 0 0
9 0 0 0
12 0 0 0
14 0 0 0
17 0 0 0
18 0 0 0
19 0 0 0
23 0 0 0
24 0 0 0
2 0 0 0
4 0 0 0
5 0 0 0
7 0 0 0
10 0 0 0
11 0 0 0
13 0 0 0
15 0 0 0
16 0 0 0
20 0 0 0
21 0 0 0
22 0 0 0
