LAMMPS data file via write_data, version 23 Jun 2022, timestep = 0

24 atoms
3 atom types

0 7.16 xlo xhi
0 7.16 ylo yhi
0 7.16 zlo zhi

Masses

1 1.00784
2 15.9991
3 28.0855

Atoms # charge

1 3 0.4978243186096225 0 0 0 0 0 0
2 3 0.4978243186096198 0 3.58 3.58 0 0 0
3 3 0.4978243186096226 3.58 3.58 0 0 0 0
4 3 0.4978243186096228 3.58 0 3.58 0 0 0
5 3 0.4978243186096225 5.37 1.79 5.37 0 0 0
6 3 0.4978243186096192 1.79 1.79 1.79 0 0 0
7 3 0.4978243186096242 1.79 5.37 5.37 0 0 0
8 3 0.497824318609623 5.37 5.37 1.79 0 0 0
9 2 -0.2489121593048104 0.895 0.895 0.895 0 0 0
10 2 -0.2489121593048106 6.265 2.685 4.475 0 0 0
11 2 -0.2489121593048101 2.685 4.475 6.265 0 0 0
12 2 -0.24891215930481 4.475 6.265 2.685 0 0 0
13 2 -0.2489121593048099 2.685 6.265 4.475 0 0 0
14 2 -0.2489121593048099 6.265 4.475 2.685 0 0 0
15 2 -0.2489121593048101 4.475 2.685 6.265 0 0 0
16 2 -0.2489121593048118 0.895 4.475 4.475 0 0 0
17 2 -0.2489121593048112 6.265 6.265 0.895 0 0 0
18 2 -0.2489121593048118 2.685 0.895 2.685 0 0 0
19 2 -0.248912159304812 2.685 2.685 0.895 0 0 0
20 2 -0.2489121593048115 6.265 0.895 6.265 0 0 0
21 2 -0.2489121593048119 4.475 0.895 4.475 0 0 0
22 2 -0.2489121593048115 0.895 6.265 6.265 0 0 0
23 2 -0.2489121593048122 0.895 2.685 2.685 0 0 0
24 2 -0.2489121593048117 4.475 4.475 0.895 0 0 0

Velocities

1 0 0 0
2 0 0 0
3 0 0 0
4 0 0 0
5 0 0 0
6 0 0 0
7 0 0 0
8 0 0 0
9 0 0 0
10 0 0 0
11 0 0 0
12 0 0 0
13 0 0 0
14 0 0 0
15 0 0 0
16 0 0 0
17 0 0 0
18 0 0 0
19 0 0 0
20 0 0 0
21 0 0 0
22 0 0 0
23 0 0 0
24 0 0 0
