LAMMPS data file via write_data, version 23 Jun 2022, timestep = 1

3000 atoms
3 atom types

0 35.8 xlo xhi
0 35.8 ylo yhi
0 35.8 zlo zhi

Masses

1 1.00784
2 15.9991
3 28.0855

Atoms # charge

1198 2 -0.9038752512922873 29.534999991260616 34.905000020653084 13.425000008736745 0 0 0
3 3 1.807757233654537 3.5800000160660246 3.580000016065467 7.121300882317883e-09 0 0 0
6 3 1.807760782041012 1.7900000000145537 1.7900000000149754 1.7900000000183773 0 0 0
8 3 1.807763587709195 5.37000000233971 5.37000000233979 1.7899999680120224 0 0 0
9 2 -0.9038823312633435 0.8949999999999447 0.8949999999998595 0.8950000000013416 0 0 0
12 2 -0.9038793308951272 4.475000011070597 6.264999986178454 2.68499998753227 0 0 0
14 2 -0.9038793309757629 6.264999986177941 4.475000011070853 2.684999987532129 0 0 0
17 2 -0.9038842241197546 6.264999999366559 6.2649999993667285 0.8949999989685404 0 0 0
18 2 -0.9038795948309483 2.6850000000456276 0.8949999999885601 2.6850000000461756 0 0 0
19 2 -0.9038805754282345 2.685000000044944 2.6850000000447527 0.8949999999903623 0 0 0
23 2 -0.9038795947110838 0.8949999999890681 2.6850000000451852 2.685000000046167 0 0 0
24 2 -0.9038832913177063 4.474999999570896 4.474999999571025 0.8950000012324228 0 0 0
601 3 1.807748222385748 8.429267950305077e-09 8.429012154920203e-09 7.160000110359594 0 0 0
603 3 1.807755629499967 3.5799999383459262 3.579999938346558 7.160000033957669 0 0 0
609 2 -0.9038729652168631 0.8949999815021887 0.8949999815021861 8.054999981537243 0 0 0
617 2 -0.9038856366153735 6.264999999485527 6.264999999485595 8.054999999044107 0 0 0
619 2 -0.9038749020100343 2.68500002464183 2.6850000246415875 8.054999975320397 0 0 0
624 2 -0.9038765448549613 4.4750000119138456 4.475000011913631 8.055000013460832 0 0 0
2 3 1.807755728477084 7.122558542960179e-09 3.5800000160650387 3.580000016064279 0 0 0
4 3 1.807755728869758 3.5800000160643246 7.1227930220629795e-09 3.5800000160645946 0 0 0
5 3 1.807760143283829 5.370000002248746 1.7899999681046803 5.37000000224628 0 0 0
7 3 1.807760143342576 1.7899999681035625 5.37000000224822 5.3700000022465755 0 0 0
10 2 -0.9038777262297382 6.264999986177131 2.6849999875329615 4.475000011070296 0 0 0
11 2 -0.9038777534626742 2.6849999875342316 4.475000011069652 6.264999986178567 0 0 0
13 2 -0.9038777261333604 2.6849999875335637 6.264999986178287 4.475000011069398 0 0 0
15 2 -0.9038777534303148 4.475000011069879 2.6849999875337014 6.264999986178462 0 0 0
16 2 -0.9038808138799549 0.8950000012318127 4.474999999569087 4.47499999956935 0 0 0
20 2 -0.9038827511013764 6.264999999290997 0.8949999990424707 6.26499999929203 0 0 0
21 2 -0.9038808139698524 4.474999999569231 0.8950000012316248 4.474999999569325 0 0 0
22 2 -0.903882751291917 0.8949999990417832 6.26499999929205 6.264999999292959 0 0 0
25 3 1.807748425797123 7.160000110392509 8.46239878171673e-09 8.46136227750094e-09 0 0 0
1197 2 -0.9038755097954988 33.11500000894002 29.534999997022748 11.634999994160095 0 0 0
30 3 1.807737180975792 8.949999902113404 1.789999984138099 1.7900000316789195 0 0 0
32 3 1.807757676012812 12.530000090170068 5.370000056010622 1.790000007494509 0 0 0
33 2 -0.9038737609434109 8.05499998156173 0.8949999815258105 0.8949999815266805 0 0 0
36 2 -0.903878348711776 11.634999997276617 6.264999998314975 2.684999999703581 0 0 0
38 2 -0.9038797917029808 13.424999986790546 4.475000011701074 2.684999986788649 0 0 0
41 2 -0.903885189809072 13.425000007151544 6.265000005677668 0.8949999928486718 0 0 0
42 2 -0.9038748177348996 9.84500003323618 0.8949999696261866 2.6850000303708774 0 0 0
43 2 -0.9038709107846425 9.845000014708349 2.685000011842516 0.8949999881549926 0 0 0
47 2 -0.9038752250933482 8.054999975344032 2.6850000246158117 2.6850000246152574 0 0 0
48 2 -0.9038703838433261 11.635000010700619 4.475000012245738 0.8950000137905434 0 0 0
625 3 1.807765778292062 7.159999970529488 35.79999999105811 7.159999970524072 0 -1 0
627 3 1.807755582179088 10.739999976152912 3.580000008758029 7.1600000419076295 0 0 0
633 2 -0.9038774031765483 8.054999987559631 0.8949999875959443 8.054999987560304 0 0 0
641 2 -0.9038787893062405 13.4250000195415 6.265000018031543 8.0549999804604 0 0 0
643 2 -0.9038793745306954 9.84500000192612 2.684999998753296 8.055000001058385 0 0 0
648 2 -0.9038799290785997 11.634999992429389 4.474999993936799 8.054999995413255 0 0 0
26 3 1.807754938311926 7.160000033988827 3.5799999383075423 3.5799999383107823 0 0 0
28 3 1.807756109882459 10.739999961141425 35.79999999972549 3.579999977961184 0 -1 0
29 3 1.807757014634913 12.530000066370235 1.7899999837540355 5.370000032146554 0 0 0
31 3 1.807764024200756 8.950000012150333 5.370000017731116 5.370000017666499 0 0 0
34 2 -0.9038807777368758 13.424999986814784 2.6849999868139953 4.4750000116746795 0 0 0
35 2 -0.9038805258423488 9.844999989886473 4.4750000116567685 6.2649999854410305 0 0 0
37 2 -0.9038822174412137 9.844999989911003 6.264999985464086 4.475000011631701 0 0 0
39 2 -0.9038769730731667 11.634999997275893 2.6849999997052163 6.264999998315494 0 0 0
40 2 -0.903875346794722 8.0550000134588 4.475000011914064 4.475000011913309 0 0 0
44 2 -0.9038841771950707 13.425000007126453 0.8949999928734867 6.265000005652569 0 0 0
45 2 -0.9038750845423443 11.634999992145227 0.8949999952348184 4.4749999936897575 0 0 0
46 2 -0.9038848690558056 8.054999999041868 6.2649999994859 6.264999999487098 0 0 0
49 3 1.807751715850406 14.320000124746068 35.79999997657951 8.3350100155144e-09 0 -1 0
51 3 1.807757530522221 17.8999999568899 3.5799999781851692 6.265347707312686e-08 0 0 0
54 3 1.807738419057012 16.11000000781 1.789999992099938 1.7899999920412157 0 0 0
56 3 1.807748065060487 19.69000000370045 5.370000024817348 1.7899999764196064 0 0 0
57 2 -0.9038714728925417 15.214999968900631 0.8949999688623755 0.8949999688632115 0 0 0
60 2 -0.9038763948656009 18.794999996787332 6.26500000754879 2.6850000090939026 0 0 0
62 2 -0.9038722032683354 20.584999999230746 4.474999999260482 2.6849999991913376 0 0 0
65 2 -0.9038765544940962 20.58500001954105 6.265000018031279 0.8949999804576723 0 0 0
66 2 -0.9038749433941163 17.005000031041426 0.8949999689566761 2.6850000310412705 0 0 0
67 2 -0.9038760676347352 17.005000031065855 2.6850000310665862 0.8949999689330719 0 0 0
71 2 -0.903874214314072 15.21499997506899 2.685000024929617 2.685000024928722 0 0 0
72 2 -0.9038752202308039 18.79499999866794 4.474999991277016 0.8949999926678918 0 0 0
649 3 1.807763374756356 14.319999992387743 4.794863173174236e-08 7.159999945246913 0 0 0
651 3 1.807757187934168 17.899999956719327 3.580000086539128 7.15999992983612 0 0 0
657 2 -0.9038836862359623 15.21500000623511 0.8950000062334351 8.055000006234224 0 0 0
665 2 -0.9038790103011018 20.58500001942025 6.265000017910099 8.054999980581021 0 0 0
667 2 -0.9038809767643274 17.004999975245404 2.684999975282295 8.0550000247182 0 0 0
672 2 -0.9038787742510882 18.795000011084518 4.475000003882878 8.05500000520399 0 0 0
50 3 1.80775591829065 14.319999951914866 3.579999922652731 3.5799999225923207 0 0 0
52 3 1.807754530709651 17.899999964874883 5.466759844807712e-08 3.579999970196846 0 0 0
53 3 1.807744412180658 19.69000001165526 1.7899999685291608 5.370000016866156 0 0 0
55 3 1.807759631899211 16.11000019662606 5.3700000416319895 5.370000025722938 0 0 0
58 2 -0.9038715354323769 20.584999999230167 2.6849999991920317 4.474999999258949 0 0 0
59 2 -0.9038857587089448 17.005000000014476 4.474999998662913 6.264999998621911 0 0 0
61 2 -0.9038875226973853 17.00500000619879 6.265000004805677 4.474999992478802 0 0 0
63 2 -0.9038742725818723 18.795000002972095 2.6850000029079246 6.265000001363629 0 0 0
64 2 -0.9038761592738453 15.215000000985622 4.474999999403856 4.474999999402584 0 0 0
68 2 -0.903874158886658 20.585000019515416 0.8949999804812812 6.265000018006405 0 0 0
69 2 -0.903873370929963 18.794999998693097 0.8949999926923802 4.474999991300746 0 0 0
70 2 -0.9038784178732463 15.214999974157411 6.265000024371712 6.265000024372525 0 0 0
73 3 1.807751574717409 21.48000010089124 35.79999998445679 4.30993907230004e-10 0 -1 0
75 3 1.80775667850374 25.05999994968714 3.5799999377076834 2.2939666166621467e-08 0 0 0
78 3 1.807733029206338 23.270000027846553 1.7899999921327598 1.789999992135553 0 0 0
80 3 1.807754973522436 26.85000008772049 5.3700000329938655 1.7899999846056756 0 0 0
81 2 -0.9038738418434431 22.37499996894888 0.8949999689110566 0.8949999689119232 0 0 0
84 2 -0.9038814249539752 25.954999985441745 6.265000001247783 2.685000002639083 0 0 0
86 2 -0.9038721821386227 27.74499998683688 4.475000011654585 2.684999986798147 0 0 0
89 2 -0.9038789055244535 27.745000007147826 6.265000005638311 0.8949999928514938 0 0 0
90 2 -0.9038744358753436 24.165000033144253 0.8949999608194785 2.685000039178075 0 0 0
91 2 -0.9038763647728512 24.165000033145134 2.6850000391794255 0.8949999608194361 0 0 0
95 2 -0.9038724553257079 22.37499997506882 2.6850000249296504 2.6850000249290535 0 0 0
96 2 -0.9038767397907405 25.954999992479852 4.47500000288792 0.895000004277964 0 0 0
673 3 1.807758604231956 21.47999999228956 1.6132311486671828e-08 7.159999976935996 0 0 0
675 3 1.807773948494332 25.059999972948184 3.580000008505335 7.159999993877548 0 0 0
681 2 -0.9038798883492946 22.375000006209472 0.8950000062077383 8.055000006209113 0 0 0
689 2 -0.9038776878383694 27.745000013234144 6.265000011724155 8.054999986767552 0 0 0
691 2 -0.9038855447074442 24.16499999600313 2.68500000207255 8.0549999980805 0 0 0
696 2 -0.9038838099682224 25.954999980234685 4.4749999906788185 8.054999992000893 0 0 0
74 3 1.807749495510067 21.480000007467982 3.579999946423867 3.579999946426809 0 0 0
76 3 1.807754571364636 25.05999994954469 2.3020806594331592e-08 3.5799999377890517 0 0 0
77 3 1.80775374773597 26.850000079703733 1.7899999926213432 5.37000004088561 0 0 0
79 3 1.807774613561933 23.270000105211228 5.370000073113042 5.369999994043983 0 0 0
82 2 -0.9038721223114251 27.744999986860794 2.6849999868235574 4.4750000116287625 0 0 0
83 2 -0.9038887322723455 24.16500000211627 4.474999990526827 6.265000006605597 0 0 0
85 2 -0.9038915258798665 24.16499999625318 6.265000000742517 4.474999996388896 0 0 0
87 2 -0.9038821673086919 25.954999979184628 2.6850000088987165 6.265000007507481 0 0 0
88 2 -0.9038790453565172 22.37500001958844 4.4750000180071785 4.475000018005557 0 0 0
92 2 -0.9038795056127077 27.745000007122357 0.8949999928769503 6.265000005613594 0 0 0
93 2 -0.903874953512919 25.954999992456035 0.8950000042547792 4.4750000028628305 0 0 0
94 2 -0.903884728961366 22.37499999283324 6.265000005695594 6.265000005695002 0 0 0
1196 2 -0.9038752513804523 34.90500002065256 29.534999991260687 13.425000008735882 0 0 0
99 3 1.807753782565498 32.21999994522909 3.57999995394273 3.8458702888988234e-08 0 0 0
102 3 1.807733643060967 30.430000023594395 1.789999992163771 1.7899999921698875 0 0 0
104 3 1.807759614444573 34.009999991965486 5.369999978157547 1.790000023839148 0 0 0
105 2 -0.9038731821512582 29.534999968973644 0.894999968937098 0.8949999689373891 0 0 0
108 2 -0.9038794608334241 33.1150000197983 6.264999990572831 2.68499999196663 0 0 0
110 2 -0.9038794033224345 34.90500000742215 4.47500000302041 2.6849999956567916 0 0 0
113 2 -0.9038739216731323 34.90499998985487 6.264999976616603 0.8950000220622787 0 0 0
114 2 -0.9038725823138467 31.325000037154023 0.8949999628466143 2.6850000371522333 0 0 0
115 2 -0.903872643907058 31.32500003715347 2.685000037153046 0.8949999628464052 0 0 0
119 2 -0.9038685758103983 29.534999975069116 2.6850000249300776 2.6850000249290544 0 0 0
120 2 -0.903876788935275 33.11500002072412 4.475000007450344 0.8950000088433794 0 0 0
697 3 1.807757267725714 28.639999976518336 3.1991890803162455e-08 7.15999996107542 0 0 0
699 3 1.807762816128206 32.21999991319058 3.5800000793184186 7.15999992278455 0 0 0
705 2 -0.9038788122699857 29.535000006259473 0.895000006257813 8.055000006258934 0 0 0
713 2 -0.9038816341472469 34.90500000867978 6.264999995369485 8.055000003238492 0 0 0
715 2 -0.9038796727224913 31.324999987592665 2.6849999876271826 8.055000012372398 0 0 0
720 2 -0.9038811644257446 33.11500002107925 4.47500000784202 8.055000009159974 0 0 0
98 3 1.807745028936412 28.63999995187335 3.5799999225902916 3.5799999225305634 0 0 0
100 3 1.807751683981315 32.219999945225446 3.846185769873501e-08 3.579999953941675 0 0 0
101 3 1.80775870237793 34.00999999202953 1.790000023774525 5.369999978092426 0 0 0
103 3 1.807757489581463 30.430000220365613 5.370000033679459 5.3700000335491636 0 0 0
106 2 -0.9038788274136172 34.90500000742232 2.68499999565693 4.475000003020048 0 0 0
107 2 -0.9038869065972598 31.325000012386845 4.474999986294182 6.2650000109909785 0 0 0
109 2 -0.9038850462493987 31.325000012436195 6.2650000110384445 4.474999986245715 0 0 0
111 2 -0.9038812262786108 33.11500001984637 2.6849999919187884 6.264999990525259 0 0 0
112 2 -0.9038699054642571 29.53500000093727 4.474999999354787 4.47499999935415 0 0 0
116 2 -0.9038728569322343 34.904999989854645 0.8950000220608492 6.264999976617243 0 0 0
117 2 -0.9038762627681769 33.115000020724324 0.8950000088436405 4.47500000745004 0 0 0
118 2 -0.9038777465410209 29.534999974158758 6.265000024371554 6.265000024372795 0 0 0
121 3 1.807748425929285 8.459601019694675e-09 7.160000110390076 8.462734513159377e-09 0 0 0
1192 2 -0.9038755098386382 29.53499999702261 33.11500000893988 11.634999994160422 0 0 0
126 3 1.807737180940902 1.78999998413767 8.949999902112381 1.790000031678015 0 0 0
128 3 1.807757675657748 5.3700000560102685 12.530000090171272 1.7900000074945417 0 0 0
129 2 -0.9038737610063794 0.8949999815269902 8.054999981562876 0.8949999815274619 0 0 0
132 2 -0.9038797916274413 4.475000011700955 13.424999986790322 2.684999986788957 0 0 0
134 2 -0.9038783485213716 6.264999998314754 11.63499999727613 2.684999999703651 0 0 0
137 2 -0.9038851897041806 6.265000005677404 13.425000007150684 0.8949999928487671 0 0 0
138 2 -0.9038752249534683 2.685000024616208 8.054999975344916 2.6850000246156696 0 0 0
139 2 -0.9038709107021357 2.685000011842319 9.845000014708223 0.8949999881555213 0 0 0
143 2 -0.9038748176507193 0.8949999696270239 9.845000033236694 2.685000030371351 0 0 0
144 2 -0.9038703836969475 4.4750000122457205 11.635000010700603 0.8950000137910216 0 0 0
721 3 1.807765778949864 35.799999991052445 7.159999970523712 7.15999997052575 -1 0 0
723 3 1.807755581470235 3.5800000087564303 10.739999976152047 7.1600000419059935 0 0 0
729 2 -0.9038774031889976 0.8949999875959063 8.054999987560361 8.054999987560127 0 0 0
737 2 -0.9038787895978857 6.265000018032007 13.425000019541796 8.054999980459547 0 0 0
739 2 -0.9038793742116331 2.6849999987532 9.845000001926202 8.05500000105799 0 0 0
744 2 -0.9038799287773253 4.474999993936338 11.634999992428888 8.054999995412357 0 0 0
122 3 1.807756109839491 35.79999999972334 10.739999961141516 3.5799999779623484 -1 0 0
124 3 1.807754938235412 3.579999938309358 7.160000033988071 3.5799999383115697 0 0 0
125 3 1.807764023719194 5.370000017730593 8.950000012148902 5.370000017666203 0 0 0
127 3 1.807757014564063 1.7899999837534213 12.530000066371143 5.3700000321476224 0 0 0
130 2 -0.9038822172230064 6.264999985463849 9.84499998991177 4.475000011631385 0 0 0
131 2 -0.9038769729382748 2.6849999997049365 11.634999997275857 6.2649999983149955 0 0 0
133 2 -0.9038807777979848 2.6849999868141476 13.424999986814683 4.475000011674216 0 0 0
135 2 -0.9038805254909786 4.475000011656242 9.844999989887047 6.2649999854408325 0 0 0
136 2 -0.9038750845800911 0.8949999952358096 11.634999992145293 4.4749999936895 0 0 0
140 2 -0.9038848689469373 6.264999999486066 8.054999999042156 6.264999999487099 0 0 0
141 2 -0.9038753466467045 4.475000011913166 8.055000013458992 4.475000011912587 0 0 0
142 2 -0.9038841773858682 0.8949999928737481 13.42500000712608 6.265000005653154 0 0 0
1191 2 -0.9038759146683816 33.11500000169529 31.32500001025448 13.42500001025535 0 0 0
1189 2 -0.9038781705670986 31.324999994997913 34.9050000067599 11.635000002140474 0 0 0
150 3 1.807756313724418 8.949999997537107 8.949999997536107 1.7900000643640608 0 0 0
152 3 1.807744120744697 12.530000002452272 12.530000002453852 1.7900000327639969 0 0 0
153 2 -0.9038781942146747 8.054999981275326 8.054999981275698 0.8949999813115367 0 0 0
156 2 -0.9038730491691376 11.635000004168967 13.424999992813403 2.6849999926593195 0 0 0
158 2 -0.9038730490025328 13.424999992814339 11.635000004168583 2.684999992659613 0 0 0
161 2 -0.9038731952312766 13.42500001867754 13.42500001867686 0.8949999813231226 0 0 0
162 2 -0.9038819271055339 9.845000008159495 8.054999994822564 2.6850000049857354 0 0 0
163 2 -0.9038700085727437 9.844999983012762 9.844999983012952 0.8950000201560055 0 0 0
167 2 -0.9038819270153763 8.054999994821955 9.845000008160005 2.6850000049858296 0 0 0
168 2 -0.9038645905192807 11.63500001698868 11.635000016988467 0.8950000201565091 0 0 0
745 3 1.807764021812708 7.160000001134209 7.1600000011323965 7.160000001131217 0 0 0
747 3 1.807754068536973 10.739999999873051 10.739999999874337 7.15999995306766 0 0 0
753 2 -0.9038798097507039 8.055000000146837 8.05500000014678 8.055000000148727 0 0 0
761 2 -0.9038776730900462 13.42499999999954 13.424999999998944 8.055000000002646 0 0 0
763 2 -0.9038723345567786 9.844999988452303 9.844999988452303 8.055000014569078 0 0 0
768 2 -0.9038764300853264 11.635000011452014 11.63500001145163 8.055000014471467 0 0 0
146 3 1.807760434425708 7.160000033949644 10.73999998410667 3.580000016651784 0 0 0
148 3 1.807760434531598 10.739999984106381 7.160000033947466 3.580000016651566 0 0 0
149 3 1.807755473067777 12.529999954964845 8.95000001342732 5.369999984793431 0 0 0
151 3 1.807755474117659 8.950000013426973 12.529999954967888 5.369999984795579 0 0 0
154 2 -0.9038771928274064 13.42499999225109 9.84499999526796 4.475000006237588 0 0 0
155 2 -0.9038774352313423 9.845000008211137 11.63499999179008 6.265000003991342 0 0 0
157 2 -0.9038771932664821 9.844999995267115 13.42499999224997 4.475000006237926 0 0 0
159 2 -0.9038774349156148 11.634999991790016 9.845000008211905 6.265000003991697 0 0 0
160 2 -0.9038819183974469 8.054999995386046 11.634999992405941 4.474999993911219 0 0 0
164 2 -0.9038794682405619 13.4250000195427 8.054999980459492 6.26500001803266 0 0 0
165 2 -0.9038819182237536 11.634999992405932 8.054999995386604 4.474999993910956 0 0 0
166 2 -0.9038794688165908 8.054999980458808 13.42500001954191 6.265000018032456 0 0 0
169 3 1.807767129986275 14.319999984230634 7.159999921386282 3.9856507427771255e-08 0 0 0
171 3 1.807756807446975 17.89999995656292 10.739999960132765 3.178463892083983e-08 0 0 0
174 3 1.807761265453099 16.110000007835243 8.950000085503545 1.7899999604386885 0 0 0
176 3 1.807749146798055 19.690000020514923 12.529999993704582 1.7900000237322296 0 0 0
177 2 -0.9038834771819612 15.21499999366706 8.05499999366726 0.8949999936658855 0 0 0
180 2 -0.9038764068970335 18.79499999772816 13.425000008154036 2.685000008305066 0 0 0
182 2 -0.9038748949499907 20.58499998042028 11.635000016562127 2.6849999802643243 0 0 0
185 2 -0.9038752544056236 20.58500000630736 13.425000006307487 0.8949999936921478 0 0 0
186 2 -0.9038808099841378 17.004999993947056 8.055000006015355 2.6849999939830242 0 0 0
187 2 -0.9038813887867417 17.005000005107437 9.845000008129508 0.8949999950427714 0 0 0
191 2 -0.9038779785103955 15.215000013320331 9.844999989699108 2.6849999865232634 0 0 0
192 2 -0.9038760990472386 18.795000004738085 11.634999995841309 0.8949999988556101 0 0 0
769 3 1.807766432447289 14.32000001582954 7.160000032765686 7.160000032765286 0 0 0
771 3 1.807756238894926 17.899999995782427 10.739999999872822 7.159999936768893 0 0 0
777 2 -0.9038816647322633 15.21499999995086 8.054999999952182 8.054999999953026 0 0 0
785 2 -0.9038784948416745 20.584999999975288 13.42499999997526 8.055000000026157 0 0 0
787 2 -0.9038789426467273 17.00499998650972 9.844999989530102 8.055000013489405 0 0 0
792 2 -0.9038798054967701 18.795000017319392 11.635000008571861 8.05500001144044 0 0 0
170 3 1.807750855387748 14.320000015878799 10.740000000093675 3.580000000861653 0 0 0
172 3 1.807762348605697 17.899999933192685 7.159999874356434 3.5800000630123976 0 0 0
173 3 1.80775508951393 19.69000000481347 8.950000069323263 5.3700000407999315 0 0 0
175 3 1.807754868206568 16.110000015177302 12.52999995449377 5.37000001684525 0 0 0
178 2 -0.9038740349821016 20.584999985870567 9.844999988887784 4.475000012618576 0 0 0
179 2 -0.9038799086397826 17.005000000117096 11.634999997016088 6.264999998762425 0 0 0
181 2 -0.9038775431035141 17.00500001164857 13.425000011649766 4.474999986837682 0 0 0
183 2 -0.9038781749850177 18.79500000395957 9.845000004940802 6.265000000567714 0 0 0
184 2 -0.9038773268355818 15.215000014006678 11.635000010989849 4.475000012495676 0 0 0
188 2 -0.9038799963323825 20.585000013163093 8.054999986839704 6.265000011651859 0 0 0
189 2 -0.9038782296251733 18.795000010789224 8.055000004906066 4.4750000035847854 0 0 0
190 2 -0.9038759188444527 15.214999986813845 13.425000013184782 6.265000011676527 0 0 0
193 3 1.807759221131079 21.479999984331435 7.15999996897889 8.176083809985359e-09 0 0 0
1187 2 -0.9038759146537341 31.325000010254694 33.11500000169521 13.425000010255747 0 0 0
198 3 1.807756747459825 23.2699999873614 8.950000030055374 1.790000015824659 0 0 0
200 3 1.807753435586251 26.85000002423885 12.529999986146803 1.790000016173397 0 0 0
201 2 -0.9038788538163325 22.37499999995024 8.054999999950617 0.8949999999494085 0 0 0
204 2 -0.9038780481851906 25.954999985624724 13.425000002458816 2.6850000024562477 0 0 0
206 2 -0.9038755216247866 27.744999980445172 11.635000016537466 2.6849999802894655 0 0 0
209 2 -0.9038772968001798 27.745000006331743 13.42500000633137 0.8949999936680146 0 0 0
210 2 -0.9038819727634393 24.164999995999978 8.05499999808135 2.6850000020695535 0 0 0
211 2 -0.9038744205879233 24.16500000134895 9.845000010245998 0.8949999927681263 0 0 0
215 2 -0.9038743996471938 22.375000019627997 9.844999983390542 2.6849999802161464 0 0 0
216 2 -0.9038762695398139 25.954999986501846 11.634999995553596 0.8949999984167185 0 0 0
793 3 1.807769472076401 21.48000003151727 7.160000016952194 7.1600000009763685 0 0 0
795 3 1.807752072565999 25.060000003633537 10.739999992133496 7.1599999289142024 0 0 0
801 2 -0.9038832883112941 22.37500000002452 8.05500000002503 8.055000000025453 0 0 0
809 2 -0.9038769549185194 27.745000006258053 13.425000006257974 8.054999993743364 0 0 0
811 2 -0.9038753127459007 24.164999982655342 9.844999991403428 8.055000011465054 0 0 0
816 2 -0.9038761770090002 25.95499999939641 11.635000008297073 8.055000011162578 0 0 0
194 3 1.807743097683591 21.480000000000125 10.7399999998707 3.579999985171926 0 0 0
196 3 1.807769973914088 25.059999933110333 7.159999938057945 3.5800000643255414 0 0 0
197 3 1.807755477545676 26.850000000729697 8.950000053248443 5.370000024839104 0 0 0
199 3 1.80775009907885 23.27000001901372 12.529999954313608 5.370000017042679 0 0 0
202 2 -0.9038745237443073 27.744999985919524 9.844999988936507 4.475000012569132 0 0 0
203 2 -0.9038770742419522 24.164999996114485 11.6349999949864 6.2650000006408275 0 0 0
205 2 -0.9038758200144987 24.165000007768434 13.425000013650637 4.474999984991075 0 0 0
207 2 -0.9038772448457251 25.954999992272644 9.844999998982047 6.264999994454861 0 0 0
208 2 -0.9038745693182809 22.375000014079706 11.635000011064063 4.475000012568953 0 0 0
212 2 -0.9038781390014761 27.74500001321093 8.054999986791344 6.265000011701098 0 0 0
213 2 -0.9038828771024854 25.954999986492297 8.054999998257632 4.474999996935829 0 0 0
214 2 -0.9038745851286186 22.374999986837427 13.425000013161117 6.265000011652141 0 0 0
217 3 1.807756578157126 28.63999996050944 7.159999945068045 1.604785904163464e-08 0 0 0
219 3 1.807753647180713 32.21999999235274 10.74000001584954 8.737307943817997e-08 0 0 0
222 3 1.807751151603475 30.43000000793504 8.95000006968771 1.7899999762562884 0 0 0
224 3 1.807758211392034 34.00999992036785 12.529999954511972 1.7899999834875926 0 0 0
225 2 -0.9038754938031369 29.534999993690935 8.054999993691613 0.894999993690248 0 0 0
228 2 -0.9038806206044707 33.11500000181037 13.425000010106162 2.6850000101044174 0 0 0
230 2 -0.9038774097029608 34.90500000723714 11.635000001814356 2.68499999528203 0 0 0
233 2 -0.9038753404492564 34.90499999595167 13.424999984071675 0.8950000159647682 0 0 0
234 2 -0.9038749711591506 31.325000000159402 8.054999999805661 2.6850000001930083 0 0 0
235 2 -0.9038774252535801 31.324999998973716 9.845000001992778 0.8950000011785679 0 0 0
239 2 -0.9038730246324651 29.535000013345442 9.844999989673092 2.684999986499508 0 0 0
240 2 -0.9038802294463332 33.11500001535124 11.635000000571804 0.8950000034352361 0 0 0
817 3 1.807762062750462 28.639999999690385 7.1600000327973055 7.160000032734074 0 0 0
819 3 1.807755637178229 32.21999998370473 10.740000055577879 7.159999992414928 0 0 0
825 2 -0.9038837592480419 29.53499999995124 8.054999999951812 8.054999999953203 0 0 0
833 2 -0.9038777052162681 34.90500002057952 13.425000008663886 8.054999991336727 0 0 0
835 2 -0.9038797857093837 31.324999986709447 9.84499998972566 8.055000013291679 0 0 0
840 2 -0.9038753701064153 33.1150000028538 11.634999988075117 8.054999990937077 0 0 0
218 3 1.807741383857156 28.63999999200891 10.740000007856661 3.579999993098019 0 0 0
220 3 1.807760283852475 32.21999992916318 7.159999906805778 3.580000095290975 0 0 0
221 3 1.807766271293603 34.010000007874794 8.949999989765791 5.370000009544046 0 0 0
223 3 1.807751459104158 30.430000015369888 12.529999954429254 5.370000017036154 0 0 0
226 2 -0.9038817525811361 34.905000000185545 9.844999991250967 4.475000010220475 0 0 0
227 2 -0.9038765986035023 31.325000000292537 11.634999996843241 6.2649999989343295 0 0 0
229 2 -0.9038792130323842 31.32500001167631 13.425000011674507 4.474999986813394 0 0 0
231 2 -0.9038798208406786 33.11500002045903 9.844999994321755 6.264999989796114 0 0 0
232 2 -0.903873324337688 29.535000014031926 11.635000011014055 4.475000012520611 0 0 0
236 2 -0.9038840720694418 34.905000008679885 8.055000003238183 6.264999995369666 0 0 0
237 2 -0.9038820546009583 33.11500002103155 8.055000009111088 4.47500000779401 0 0 0
238 2 -0.9038746014420974 29.534999986790304 13.425000013210118 6.265000011700671 0 0 0
241 3 1.807751716038454 35.79999997657696 14.320000124744482 8.335476309184743e-09 -1 0 0
243 3 1.807757530330738 3.5799999781860308 17.899999956889282 6.265296881302619e-08 0 0 0
246 3 1.807738419107101 1.7899999920998022 16.11000000781102 1.7899999920407001 0 0 0
248 3 1.807748064908328 5.370000024818277 19.69000000370038 1.7899999764197294 0 0 0
249 2 -0.9038714728489762 0.8949999688626886 15.21499996890045 0.8949999688634587 0 0 0
252 2 -0.9038722030530854 4.474999999260237 20.58499999923127 2.684999999191333 0 0 0
254 2 -0.9038763946860635 6.265000007547751 18.79499999678805 2.685000009093404 0 0 0
257 2 -0.9038765544522148 6.265000018030689 20.58500001954097 0.8949999804578381 0 0 0
258 2 -0.9038742142429154 2.6850000249298396 15.214999975068743 2.685000024929075 0 0 0
259 2 -0.9038760675042879 2.6850000310660724 17.005000031065443 0.8949999689336109 0 0 0
263 2 -0.9038749431703134 0.8949999689571864 17.005000031040296 2.685000031040614 0 0 0
264 2 -0.9038752200069544 4.47499999127676 18.794999998668235 0.8949999926682031 0 0 0
841 3 1.80776337482987 4.794620167558606e-08 14.319999992386784 7.159999945245831 0 0 0
843 3 1.807757187631425 3.5800000865390533 17.89999995671906 7.159999929837031 0 0 0
849 2 -0.9038836862652236 0.895000006233627 15.215000006234586 8.055000006234224 0 0 0
857 2 -0.9038790107772906 6.26500001790974 20.58500001942101 8.054999980580718 0 0 0
859 2 -0.9038809766903702 2.684999975282119 17.004999975245028 8.055000024718217 0 0 0
864 2 -0.9038787743038873 4.47500000388324 18.795000011085136 8.055000005204247 0 0 0
242 3 1.80775453019395 5.466618357985454e-08 17.899999964875924 3.5799999701974157 0 0 0
244 3 1.807755918346435 3.5799999226552774 14.31999995191634 3.579999922593468 0 0 0
245 3 1.807759632348771 5.370000041635308 16.110000196624085 5.370000025724829 0 0 0
247 3 1.807744411678856 1.7899999685277672 19.690000011654536 5.3700000168668165 0 0 0
250 2 -0.9038875227853971 6.2650000048047705 17.0050000061984 4.474999992479295 0 0 0
251 2 -0.9038742723105886 2.685000002908376 18.79500000297233 6.265000001363671 0 0 0
253 2 -0.9038715351646399 2.684999999192915 20.584999999231393 4.4749999992581095 0 0 0
255 2 -0.9038857586495411 4.474999998663063 17.005000000014405 6.2649999986220575 0 0 0
256 2 -0.9038733706629343 0.8949999926927672 18.794999998692848 4.474999991300359 0 0 0
260 2 -0.9038784183239404 6.265000024371561 15.214999974156326 6.265000024372875 0 0 0
261 2 -0.9038761594181628 4.474999999403008 15.215000000984562 4.47499999940224 0 0 0
262 2 -0.903874158787898 0.8949999804815358 20.585000019516933 6.265000018007443 0 0 0
265 3 1.807767130000414 7.159999921387602 14.319999984233416 3.985588908905769e-08 0 0 0
267 3 1.807756807296961 10.73999996013198 17.89999995656211 3.17852730802315e-08 0 0 0
270 3 1.807761265327801 8.950000085504103 16.11000000783543 1.7899999604399248 0 0 0
272 3 1.807749146534994 12.529999993704145 19.690000020514837 1.790000023732933 0 0 0
273 2 -0.9038834770912281 8.054999993667115 15.214999993666735 0.8949999936659635 0 0 0
276 2 -0.9038748948224484 11.635000016562302 20.584999980420875 2.684999980264244 0 0 0
278 2 -0.9038764068008139 13.425000008154264 18.794999997728443 2.685000008305197 0 0 0
281 2 -0.9038752543180089 13.425000006307815 20.585000006307347 0.8949999936921165 0 0 0
282 2 -0.9038779786091191 9.8449999896982 15.215000013320484 2.6849999865224907 0 0 0
283 2 -0.9038813886788943 9.845000008128736 17.005000005106712 0.8949999950433483 0 0 0
287 2 -0.9038808099017496 8.055000006015371 17.004999993946523 2.6849999939821436 0 0 0
288 2 -0.9038760988687671 11.634999995841772 18.795000004738675 0.8949999988557726 0 0 0
865 3 1.807766433284867 7.160000032766115 14.320000015829926 7.1600000327622 0 0 0
867 3 1.807756238464839 10.739999999871946 17.899999995781062 7.1599999367683145 0 0 0