LAMMPS data file via write_data, version 23 Jun 2022, timestep = 1518

3000 atoms
3 atom types

0 35.65 xlo xhi
0 35.65 ylo yhi
0 35.65 zlo zhi

Masses

1 1.00784
2 15.9991
3 28.0855

Atoms # charge

1198 2 -0.8853258798915339 29.481315831980666 34.888016409233295 13.182066501901115 0 0 0
1197 2 -0.9044040022385902 32.94666231890677 29.2274472575199 11.769187583107627 0 0 0
6 3 1.801721637747716 1.8270139121271745 1.8282003757206018 1.6787946419769884 0 0 0
8 3 1.821104928900543 5.266435248234912 5.278752688306569 1.774992557336366 0 0 0
9 2 -0.8967084396105194 1.1108387641643591 0.8252637054601104 0.7417930407581955 0 0 0
12 2 -0.9229588870466169 4.203256873033056 6.0867829865192835 2.532518903139294 0 0 0
14 2 -0.8905227421619959 5.968513130229751 4.318976101088696 2.7592004687187726 0 0 0
17 2 -0.8851291871176108 6.312831155207901 6.232875302864742 1.1488215655813987 0 0 0
18 2 -0.917439321423723 2.8659502898423694 1.046454865481291 2.5094565798521224 0 0 0
19 2 -0.8976149663772668 2.5756681975553635 2.8922463454880636 0.8297996870078749 0 0 0
23 2 -0.8984692434683886 0.7646025335431125 2.578955205102568 2.526908565446761 0 0 0
24 2 -0.9122699880666268 4.587231056458901 4.4502848875215255 0.6679257406362433 0 0 0
601 3 1.768363923586894 35.57060539641589 0.013606813606816537 7.102731405619634 -1 0 0
603 3 1.822641200084933 3.553076815830794 3.5969200752637445 7.127618479552963 0 0 0
609 2 -0.851620533305579 0.674664073730376 0.9223156956760051 8.136905229616296 0 0 0
617 2 -0.8640634074502416 5.969968752705718 6.252412853686095 7.876155926828031 0 0 0
619 2 -0.8719379208964233 2.590768036520235 2.5734777343610205 7.77295642546691 0 0 0
624 2 -0.9135203327458264 4.275350522596481 4.394517377458817 8.222925684549343 0 0 0
2 3 1.791929109834911 0.06384187019405367 3.4954703401701583 3.561195221284561 0 0 0
4 3 1.83027332140519 3.544090488299585 0.11211041239398035 3.5215834239940724 0 0 0
5 3 1.742417057945091 5.287219755797535 1.7881865274045499 5.377428684172488 0 0 0
7 3 1.775044543958482 1.8067554059263222 5.314437507674372 5.309255293346134 0 0 0
10 2 -0.8684285239668574 6.337196917391956 2.4936018492179537 4.457211629314656 0 0 0
11 2 -0.9076352997768059 2.699105634547225 4.591251373426727 6.330952759104704 0 0 0
13 2 -0.8979056499378042 2.720598597942315 6.305537871852067 4.554474880545496 0 0 0
15 2 -0.9056396223791028 4.588325329384737 2.8611852592858424 6.250566624579713 0 0 0
16 2 -0.897411865168802 1.1393877851031442 4.302665318382001 4.337542850595283 0 0 0
20 2 -0.8266189529858251 6.060037348989398 0.7312057692529819 6.256956165388572 0 0 0
21 2 -0.900288122769155 4.221739318125633 1.0197844167030503 4.562457757959731 0 0 0
22 2 -0.8405901095769057 0.6841087781360266 6.122423016848424 6.06004847573988 0 0 0
1196 2 -0.898795595756461 34.87518679124347 29.513631610407543 13.306346087634646 0 0 0
27 3 1.821669244344652 10.67903739928807 3.5222300110353157 0.03706393805812657 0 0 0
30 3 1.832770217065068 8.92964529660617 1.783623107259994 1.796582729027812 0 0 0
32 3 1.731979881334254 12.435053321969669 5.319578069951023 1.7854797657614256 0 0 0
33 2 -0.9012282209262886 8.243440218451996 0.7833623409277691 0.8390101984940418 0 0 0
36 2 -0.8620904263767707 11.350418787693787 6.1679241969585785 2.525162262257444 0 0 0
38 2 -0.8930397878601125 13.236681655552752 4.52724953185773 2.845173542901131 0 0 0
41 2 -0.8168361421194714 13.41014550475673 6.335838495841278 1.0730132774387335 0 0 0
42 2 -0.8985936404944005 9.700292196650645 1.0022748932862469 2.876721483490441 0 0 0
43 2 -0.9278592852861501 9.949201630019212 2.6593710484248185 1.0680502632531366 0 0 0
47 2 -0.9031592033286786 7.877061521821539 2.6951441725389427 2.458370915277538 0 0 0
48 2 -0.8938450307648107 11.75806197639272 4.372790334970088 0.7547719746356019 0 0 0
625 3 1.607836126762137 7.1294261380135575 35.63651958645845 7.159779917032566 0 -1 0
627 3 1.719834313228555 10.744806504160401 3.4882423549266393 7.141651422635258 0 0 0
633 2 -0.7974246681981885 7.934857517621918 1.0737979794026182 7.991607328545867 0 0 0
641 2 -0.9046633690874001 13.193257478508954 6.405157285269483 8.210617980388358 0 0 0
643 2 -0.8410776929124786 10.011283753897814 2.565801323782394 8.183339597095996 0 0 0
648 2 -0.8817150537150935 11.47190720558765 4.60876933070624 7.93297993434747 0 0 0
26 3 1.747174994756432 7.055389850329664 3.497570343535898 3.496222116476234 0 0 0
28 3 1.759976118052783 10.638876604792193 0.003789237657112945 3.5920235245374585 0 0 0
29 3 1.824361638457822 12.476550189768195 1.7020325014506863 5.346436712405517 0 0 0
31 3 1.636457265360462 8.89751133026753 5.23967116860689 5.336870539358759 0 0 0
34 2 -0.923166968707081 13.216213742063342 2.476220633220912 4.249338487169163 0 0 0
35 2 -0.8246759970134175 9.70211302990859 4.1517605621351725 6.161857554287121 0 0 0
37 2 -0.837317193722635 9.926794754001936 6.196568430912893 4.618854609325778 0 0 0
39 2 -0.8981932310583668 11.78114133696296 2.675860739443533 6.322471864284465 0 0 0
40 2 -0.8445517555905446 7.974157287350982 4.507915298898953 4.281473616708038 0 0 0
44 2 -0.8986235678031297 13.510977413044905 0.8675888453649873 6.127342065441952 0 0 0
45 2 -0.8986959170650572 11.452815996634543 0.7579058343592381 4.676003941482095 0 0 0
46 2 -0.807793159088648 8.03719484584857 6.090199108865064 6.367434455219508 0 0 0
1192 2 -0.8665981788440096 29.510746990481508 32.78234639639998 11.78625364431691 0 0 0
1191 2 -0.9182611213135666 32.80109624335213 31.053353902389382 13.434733723144387 0 0 0
54 3 1.760190337145245 15.892024477931347 1.771090017525919 1.7272844171299446 0 0 0
56 3 1.572934574913712 19.490244342606566 5.266857483048516 1.7333074507168453 0 0 0
57 2 -0.9094839461568327 15.070957705250775 0.6778840369375049 1.0111004147048512 0 0 0
60 2 -0.7750484971610453 18.6837437837901 6.070870582580451 2.853920638504975 0 0 0
62 2 -0.7985270864855469 20.570616936716885 4.322272107014519 2.419062109070604 0 0 0
65 2 -0.7808841452659557 20.201792804727962 6.289384006764411 0.7365236703259683 0 0 0
66 2 -0.8370421747186054 16.894920876308337 1.1409070014465006 2.752183374653062 0 0 0
67 2 -0.8464949386113744 16.706854936989405 2.5268580240903065 0.6336293677895062 0 0 0
71 2 -0.9062670453231833 14.963468185776563 2.7626900886865773 2.455697235765147 0 0 0
72 2 -0.8041028095289731 18.472293198030297 4.353142566529601 0.9259543975860149 0 0 0
649 3 1.759473367715058 14.217498942132206 35.64573473184449 7.190766578870698 0 -1 0
651 3 1.633067896162106 17.629905372014274 3.585863539950209 7.19986677977987 0 0 0
657 2 -0.9001454400337576 14.880595454642059 0.8832118970119311 8.271790712734406 0 0 0
665 2 -0.7806812041798104 20.48733309865037 6.01546122883862 7.910824255427773 0 0 0
667 2 -0.8657958831791083 16.598336192118506 2.67785256700159 7.933998675635206 0 0 0
672 2 -0.8045751579990259 18.588524998595013 4.294469214643341 8.252152429238542 0 0 0
50 3 1.820873285986802 14.13000114897382 3.4771762765707273 3.533669442619194 0 0 0
52 3 1.593662358223176 17.794694846190655 0.0877273871012092 3.508867887648127 0 0 0
53 3 1.594001870767257 19.574168658637035 1.8661668408303183 5.412424175223578 0 0 0
55 3 1.668825280410792 15.777501076551955 5.306552511308433 5.359502374224063 0 0 0
58 2 -0.807098932599737 20.451762704431207 2.8617354500676635 4.535860801664358 0 0 0
59 2 -0.8093650163301138 16.82464091200733 4.664108186438664 6.35879388612142 0 0 0
61 2 -0.799567095391473 16.544456785054166 6.255474649904922 4.347417908839056 0 0 0
63 2 -0.7939310152391417 18.461635226803086 2.7053296743863386 6.176277757213253 0 0 0
64 2 -0.8768313159975717 15.060076587185868 4.181731121197051 4.552677648886886 0 0 0
68 2 -0.8202878850940565 20.487834536826696 1.144729373443259 6.486693498610861 0 0 0
69 2 -0.796482632105096 18.835395075059697 0.8039438706042321 4.481408780160897 0 0 0
70 2 -0.8677936353169781 14.72430337721853 6.130532198978502 6.178722153601912 0 0 0
1189 2 -0.8886634572015739 31.32456935881544 34.530325652869294 11.473989603384465 0 0 0
1187 2 -0.9256515253257875 31.287640889191174 33.141568940351526 13.510638649337743 0 0 0
78 3 1.809610646769752 23.24420616059876 1.8508528753121052 1.7024032155468625 0 0 0
80 3 1.810163386377491 26.821765799575225 5.409480889581616 1.7564838738981046 0 0 0
81 2 -0.8942596865084207 22.343207260971862 1.1972838554540604 0.6340302839084256 0 0 0
84 2 -0.9323648772633292 26.10533911656493 6.3578635047068595 2.7235036764943383 0 0 0
86 2 -0.9057217299948084 27.548821089961272 4.302297669583925 2.548735563959309 0 0 0
89 2 -0.8905331015954754 27.87528251022365 6.217169532856491 0.9555983928051343 0 0 0
90 2 -0.9208539949249634 24.12490466949345 0.7950567969702032 2.3772838169670445 0 0 0
91 2 -0.8968090585949506 24.138792432113174 2.907077355348686 1.0220722567208198 0 0 0
95 2 -0.8765649001500234 22.348682890105238 2.50817829883615 2.782731942551874 0 0 0
96 2 -0.8847003910645638 25.83347741428282 4.742254624903387 0.7616729126119103 0 0 0
673 3 1.720060533091983 21.362778839982436 0.08214094164635345 7.251787709399388 0 0 0
675 3 1.6828003320253 24.876835532728006 3.521042090652361 7.143124168104652 0 0 0
681 2 -0.9018264928572937 22.214851708038548 0.7957550437721089 8.325287615075881 0 0 0
689 2 -0.7963359561892246 27.73349074777305 6.01162134256725 7.9265080338786165 0 0 0
691 2 -0.8871443587297192 24.103713515587888 2.433203244014496 7.933474615546169 0 0 0
696 2 -0.8125286284223945 25.61360652750166 4.501080020783632 8.138731184611547 0 0 0
74 3 1.649887922900926 21.4331805903739 3.5459633389196226 3.4966485400206038 0 0 0
76 3 1.812359787636946 24.94440568486908 0.07032542926934283 3.4469060871706567 0 0 0
77 3 1.702990346522101 26.67163619220906 1.8428716029725716 5.234029780390655 0 0 0
79 3 1.683313733692177 23.221822794099214 5.379059067111097 5.278928089603272 0 0 0
82 2 -0.8763022990634832 27.735659296216284 2.535250728993275 4.325350164278228 0 0 0
83 2 -0.8380365337592708 23.854368019546705 4.35455579319035 6.287688017125756 0 0 0
85 2 -0.8913531290737366 24.338792889183193 6.106930083536766 4.493391348243624 0 0 0
87 2 -0.8378055244259107 25.933010766240034 2.873230162926133 6.169749088854445 0 0 0
88 2 -0.8266561799346602 22.317848318634113 4.608037233255621 4.250483478238084 0 0 0
92 2 -0.8086424446172086 27.404525896317185 0.8021046672766958 6.164450803571487 0 0 0
93 2 -0.8940850975954987 25.60698610881254 1.0987891236611345 4.385299221564592 0 0 0
94 2 -0.8107020480484368 22.324538627032066 6.411273016663951 6.072330754270676 0 0 0
1186 2 -0.8655714175175927 34.475766775950476 31.290264842591224 11.560474045742415 0 0 0
1183 3 1.805136572203726 30.39178410259518 33.84240236493492 12.492740010867049 0 0 0
102 3 1.819237670944654 30.315734632154157 1.8134082096055222 1.7367760680437592 0 0 0
104 3 1.709092872823649 33.89351620111258 5.312035050166604 1.8396707363252682 0 0 0
105 2 -0.907386195302849 29.254980642240856 1.0059535949171574 0.9677229315782621 0 0 0
108 2 -0.8781813834278955 33.00684005341292 6.390041062424765 2.5477337128157544 0 0 0
110 2 -0.8738393405799069 34.72336255307464 4.4958988324065015 2.888922052665778 0 0 0
113 2 -0.8430044935151738 34.8938125739207 6.042414649394099 0.868684604063717 0 0 0
114 2 -0.8906047157040941 31.116588563344834 0.8146567659246905 2.6035375066383613 0 0 0
115 2 -0.9029176657829896 31.245280306907357 2.510977909506758 0.7174171974660012 0 0 0
119 2 -0.9093861901767588 29.616589608701194 2.851880268143193 2.6418778956663163 0 0 0
120 2 -0.8621355810861466 33.00568182881822 4.2938537851155605 1.044867642087926 0 0 0
697 3 1.579828553610524 28.474988321201153 0.05159043479307241 7.0629997198465295 0 0 0
699 3 1.713234950817994 32.07339592001439 3.604634192985414 7.0322345385109655 0 0 0
705 2 -0.7888746099455832 29.21592833043904 1.0861619557726587 8.021058654429298 0 0 0
713 2 -0.7931081857922585 34.77071525571008 6.338194768455491 8.143796043907834 0 0 0
715 2 -0.8215143152632522 31.35844698404858 2.5530801947920705 7.963198085543852 0 0 0
720 2 -0.8216158167226449 32.77695037044103 4.676578707304398 7.9534070563869 0 0 0
98 3 1.803795129083851 28.53548385865957 3.571594671652383 3.4841079004660154 0 0 0
100 3 1.758593673983468 32.16502375143439 0.10063856267357608 3.4957376091486903 0 0 0
101 3 1.842559750384749 33.887341155897275 1.8355820280346307 5.329045166639737 0 0 0
103 3 1.809289197685595 30.265917049686927 5.324587388474097 5.261120287578665 0 0 0
106 2 -0.919949330290015 34.97023022351692 2.562636995441077 4.527226526771026 0 0 0
107 2 -0.8920597568242666 31.012263643616627 4.29668989990598 6.138222764513393 0 0 0
109 2 -0.9086186043267722 31.26340517073062 6.006145113846876 4.311738319848085 0 0 0
111 2 -0.8958125767841504 33.144666430730915 2.8869224360552055 6.17543156451609 0 0 0
112 2 -0.9111009272498588 29.19908977682076 4.591904909237916 4.429553457298751 0 0 0
116 2 -0.9168601928174588 34.56452098937898 0.8101298768634403 6.249134722120084 0 0 0
117 2 -0.9165049440881041 32.88037753889754 1.1338270692823935 4.398202578403581 0 0 0
118 2 -0.8719073700986248 29.58262486029995 6.38714049992183 6.162874019958234 0 0 0
1181 3 1.798199708546525 33.7785864510907 30.278590942168872 12.523932374862614 0 0 0
123 3 1.730578174580119 3.503201434805347 10.716759028097073 0.05916197158588318 0 0 0
126 3 1.826928785137079 1.7343442928004988 8.907117810369611 1.788158665175526 0 0 0
128 3 1.804101341602378 5.296820621147112 12.536442554616466 1.7890586452331048 0 0 0
129 2 -0.8906108003242518 0.7060605548333183 8.170949986428665 0.8955461062087398 0 0 0
132 2 -0.9053594479005187 4.5780960075355726 13.330642120076778 2.8917444377286996 0 0 0
134 2 -0.9120241875738767 6.312538121500871 11.583315724484779 2.4461793621042616 0 0 0
137 2 -0.8853990295554006 6.031715911193753 13.583689717038425 0.9094226947985433 0 0 0
138 2 -0.9166889418134105 2.4466071194376355 7.855952908700761 2.6447975963930066 0 0 0
139 2 -0.8981535830217832 2.77457710969865 9.6581493989408 0.9282621187840833 0 0 0
143 2 -0.9102675395368111 1.0383528470450671 9.903413306514068 2.7310569910606697 0 0 0
144 2 -0.8923561405946645 4.247560745877073 11.759010634263705 0.947686763499592 0 0 0
721 3 1.610598962167208 35.60279967714667 7.126685876244347 7.039845675449298 -1 0 0
723 3 1.643471715786719 3.5163361257157484 10.653708303447548 7.101809679584461 0 0 0
729 2 -0.7837094854783253 1.0333113461225445 7.999695406761077 7.811034641497315 0 0 0
737 2 -0.9026150222009732 6.405621003285611 13.224358878896176 8.181532846352646 0 0 0
739 2 -0.8035685880322565 2.7526906548272523 9.840329247117987 8.235362281951787 0 0 0
744 2 -0.8621413290201922 4.5665654206975885 11.58149356743679 7.791586919612573 0 0 0
122 3 1.801706977096821 35.594088691585235 10.682202997751721 3.4838085210213476 -1 0 0
124 3 1.825739623293209 3.4862692960645507 7.07931411182361 3.461310342910525 0 0 0
125 3 1.675380612572972 5.277863815909763 8.903617077237394 5.180765407437385 0 0 0
127 3 1.731948652984023 1.6533015249487835 12.466407452907104 5.320580109181716 0 0 0
130 2 -0.8669905925753644 6.102547889996328 10.014950220249116 4.449023898259461 0 0 0
131 2 -0.83660438286812 2.4553229581144214 11.497478822280454 6.278550988461894 0 0 0
133 2 -0.8994235916320227 2.5628858375110495 13.187136112804613 4.2948334122089245 0 0 0
135 2 -0.8198396357304291 4.260537878812491 9.607555123344675 6.169051571118061 0 0 0
136 2 -0.877418641809449 0.6005006103869546 11.625754718913102 4.530823114200799 0 0 0
140 2 -0.8132479405559071 6.266326783587145 7.944496464684603 5.964675460890252 0 0 0
141 2 -0.8777220951768347 4.4927095244991975 8.061845276413854 4.123290001874816 0 0 0
142 2 -0.8766693748106872 0.9035234939765816 13.53947401627905 6.169008388611003 0 0 0
145 3 1.709559768451786 7.080267066366402 7.0677311073712445 0.08349680646503299 0 0 0
147 3 1.687386773196929 10.651320843022647 10.65305063478051 0.16460076848739688 0 0 0
150 3 1.825586944210917 8.845648376660678 8.8448551971279 1.8421633938526703 0 0 0
152 3 1.828273677783613 12.43901075958236 12.463598991485192 1.8834128255235867 0 0 0
153 2 -0.8938220384800516 8.13404801652899 7.993061439846847 0.7626087409974965 0 0 0
156 2 -0.9216968412650868 11.583846530284957 13.22004448508582 2.9097820507455325 0 0 0
158 2 -0.9084962756225399 13.263873742221925 11.393624471330455 2.6255201449212504 0 0 0
161 2 -0.9184900624706789 13.407468321636207 13.44692705332255 1.214475762063039 0 0 0
162 2 -0.9075408286113235 9.598403659651462 7.955572035162605 2.841582218153283 0 0 0
163 2 -0.8916973600971869 9.829841999813173 9.851720250261561 1.2106954625564406 0 0 0
167 2 -0.907687968153892 7.789257568421207 9.613383226159936 2.6406433579954594 0 0 0
168 2 -0.8855162780975429 11.534283726657765 11.746774194352753 0.846113567961788 0 0 0
745 3 1.634590446033622 7.0219057262560485 7.09023443875771 7.071109301329072 0 0 0
747 3 1.809480949396035 10.58814804207683 10.597189153773984 7.071064574800128 0 0 0
753 2 -0.8279182548676317 7.804126475701926 8.101536914454286 8.010765694907667 0 0 0
761 2 -0.8978368450819706 13.446223724538987 13.20163786523189 8.095844457754772 0 0 0
763 2 -0.8786270085829743 9.9056359575235 9.605821218398674 8.050275036575748 0 0 0
768 2 -0.9000430149101327 11.619548586826589 11.479709043075474 7.808960254359575 0 0 0
146 3 1.804474817467524 7.082107459422814 10.705329189848014 3.4547907694458613 0 0 0
148 3 1.75832387423312 10.655935276871954 7.101784800852192 3.564503701271333 0 0 0
149 3 1.827762754379198 12.395793611563134 8.90762600652734 5.318251152765118 0 0 0
151 3 1.788759453804306 8.824637759275312 12.392795935560814 5.33302286309283 0 0 0
154 2 -0.9021667977299046 13.395033673780945 9.861956095125212 4.636733314085243 0 0 0
155 2 -0.902894788594492 9.531243995692396 11.4787941678755 6.367722025697012 0 0 0
157 2 -0.8875545068311999 9.849573704267831 13.361740267954819 4.68493838130769 0 0 0
159 2 -0.9056239092821086 11.315827848549729 9.763518466420036 6.002477926298324 0 0 0
160 2 -0.9015952079221485 8.127412366347384 11.54288133040044 4.2360954639905986 0 0 0
164 2 -0.9123899941502248 13.158335236037555 8.119098382027193 6.3997068292014845 0 0 0
165 2 -0.9054997905509198 11.719061716068559 7.97512272043256 4.284293811729755 0 0 0
166 2 -0.8920288537395132 7.760947117603682 13.249025802378489 6.0655604923295865 0 0 0
169 3 1.576096510939143 14.29788449939566 7.128482270189062 0.02362385794700896 0 0 0
171 3 1.816129185481598 17.846747482271166 10.839589558991326 0.023743876487534513 0 0 0
174 3 1.665468218782651 16.076735634400563 9.064292092875176 1.7691413773981892 0 0 0
176 3 1.732541446613799 19.62806746102315 12.576671284636856 1.7729003138663892 0 0 0
177 2 -0.8059071350803143 15.1854680163066 8.2427305002449 0.7442082496994046 0 0 0
180 2 -0.8558504208290628 18.85160337023514 13.50541847192244 2.777870273679114 0 0 0
182 2 -0.8247131482866258 20.38841046464576 11.456682400470477 2.5814677760796374 0 0 0
185 2 -0.8919989726107027 20.707568908471558 13.433344362603156 1.0680503174701415 0 0 0
186 2 -0.8024222105575116 17.03921090269046 8.053140038128445 2.5158622265670374 0 0 0
187 2 -0.885324809514996 16.925850313526777 10.137376223357936 1.0368180672238123 0 0 0
191 2 -0.8563353016261376 15.178030544783732 9.753722822082922 2.8590670080434872 0 0 0
192 2 -0.9090264108683938 18.683953986792535 11.904643142037287 0.7502402436667993 0 0 0
769 3 1.804617839439483 14.065036910568983 7.1389839595557145 7.171796629506088 0 0 0
771 3 1.801770969471441 17.67162068509204 10.701705424473873 7.197307188291217 0 0 0
777 2 -0.9099399640822136 15.16809583285807 7.894477366101799 7.9399869672381636 0 0 0
785 2 -0.9065172380968181 20.463911265838004 13.149159639584264 7.883927725054161 0 0 0
787 2 -0.9129391216314995 16.934030464686053 9.628606326180726 8.018384913085303 0 0 0
792 2 -0.9145580450568573 18.48352228176745 11.564326980612305 8.185359862048383 0 0 0
170 3 1.787863256598369 14.210039537307209 10.707397784706984 3.635173639982957 0 0 0
172 3 1.571202825520377 17.68541433228541 7.075761234979753 3.5937975477045145 0 0 0
173 3 1.599225295863661 19.48073414369858 8.924208634188709 5.414472851443332 0 0 0
175 3 1.814423082743506 15.961879751415482 12.493490005458135 5.41021181279987 0 0 0
178 2 -0.7871619488389778 20.439178601714104 9.60002404378189 4.339882642656815 0 0 0
179 2 -0.9157920302713169 16.63381419271725 11.524068242653636 6.402849081095658 0 0 0
181 2 -0.8746010288578215 17.052523480159184 13.205410866858896 4.563534946831176 0 0 0
183 2 -0.8483362785032248 18.641861069855274 10.015196975572074 6.182482818374887 0 0 0
184 2 -0.9051528631235917 15.014701213075808 11.765964422861368 4.42960913063045 0 0 0
188 2 -0.7878252062550041 20.392420771281294 8.139447412370831 6.453063733033217 0 0 0
189 2 -0.7883460985277456 18.49401198005506 7.913912868853956 4.681319947114946 0 0 0
190 2 -0.9148415874298162 15.17824517216949 13.532263901121862 6.232085326795749 0 0 0
1180 3 1.835730930148363 32.12417719313292 28.49363829723553 10.704167561553529 0 0 0
1178 3 1.624620074837686 28.619779586329617 32.05320334936143 10.730002975909345 0 0 0
198 3 1.639803733190105 23.20037311568798 8.79860351067369 1.7860055155780734 0 0 0
200 3 1.598073468292626 26.790564937876027 12.490325239064594 1.8485921119092852 0 0 0
201 2 -0.7972843753692916 22.09663583798824 8.024105551847105 0.9547651799577782 0 0 0
204 2 -0.8117054510534319 25.90812478353686 13.594671810113192 2.5802013698662694 0 0 0
206 2 -0.8342302300490313 27.641684579362604 11.682348789199013 2.911676519839381 0 0 0
209 2 -0.7958402112875012 27.79900784109529 13.218647384141356 0.8559523964550056 0 0 0
210 2 -0.8860088102299045 24.013226060577157 7.754105873208935 2.6049598757107053 0 0 0
211 2 -0.8005614039513298 24.119466395569148 9.598398412240872 0.7714221599417262 0 0 0
215 2 -0.8011001280758453 22.455087524336776 9.840546952141512 2.721315188645334 0 0 0
216 2 -0.7983812579798045 25.845132298380697 11.488336879914597 1.04597994004826 0 0 0
793 3 1.574722320848813 21.375527295096003 7.098788812792879 7.149771071948006 0 0 0
795 3 1.589939083819188 24.98830531033235 10.717826538921928 7.143147906593821 0 0 0
801 2 -0.7881777027817927 22.255507092707944 7.865195742497759 8.233975146969588 0 0 0
809 2 -0.8780515704672155 27.58785506542486 13.300184968181597 7.834285041160426 0 0 0
811 2 -0.7883620128653719 24.109224293584724 9.633107301462973 7.910502985186535 0 0 0
816 2 -0.8165035539043408 25.824027779961103 11.516172323076017 8.234776488886196 0 0 0
194 3 1.595097002911837 21.34694628084702 10.636542495142814 3.5422853298621058 0 0 0
196 3 1.830165492172901 25.041787005892576 7.090475601382773 3.5416736585221416 0 0 0
197 3 1.704625108822058 26.74768647721548 8.90787017059387 5.282432619435701 0 0 0
199 3 1.620938074271731 23.11443892991288 12.522885780781985 5.345635283758608 0 0 0
202 2 -0.864040318712069 27.792279543362454 9.592751168909789 4.3484328899503035 0 0 0
203 2 -0.8008792261773672 24.004560649196755 11.7219505337836 6.392586861808729 0 0 0
205 2 -0.8182125069735297 24.051245839464084 13.272522439939971 4.309748914930891 0 0 0
207 2 -0.816007525586443 25.979582796617223 10.002831517355427 6.125070371145961 0 0 0
208 2 -0.8000094177391637 22.10388875163583 11.556004244316934 4.592481132144519 0 0 0
212 2 -0.8354734375453898 27.48706671621361 7.92033246464173 6.260501300892178 0 0 0
213 2 -0.8945100379827345 25.71752604102584 8.166887186886058 4.4034207356260815 0 0 0
214 2 -0.8441153913516241 22.223084208368377 13.57337605515919 6.096844843848204 0 0 0
1800 2 -0.9039955648478234 33.19177264557128 32.93685546787529 15.035157296855012 0 0 0
219 3 1.7070515283606 32.098364647770346 10.716318760599824 0.052502567140926326 0 0 0
222 3 1.840111909902949 30.33370985622688 8.916493001195958 1.7612414893109096 0 0 0
224 3 1.825015821904146 33.89518961193213 12.514459127784107 1.7464242560113699 0 0 0
225 2 -0.9048598429178597 29.483367776199998 8.171432806659775 0.7198830153813064 0 0 0
228 2 -0.8835903594869332 33.23423710239579 13.44469129675838 2.7963829654474424 0 0 0
230 2 -0.9233353861608705 34.80391617626238 11.497076503796404 2.448954145823637 0 0 0
233 2 -0.9304817814964663 34.69645450138009 13.304592026805123 0.7079149203492827 0 0 0
234 2 -0.9328287613087556 30.983283810412683 7.934013890134421 2.7433676427256297 0 0 0
235 2 -0.8855387461031836 31.422052262981605 9.665932453447546 0.968611370407175 0 0 0
239 2 -0.9148626143156952 29.477985863637713 9.9537777551362 2.5080480218401426 0 0 0
240 2 -0.877887989774594 32.79378006813581 11.756657488887974 0.9703190806628051 0 0 0
817 3 1.642089685681726 28.546630991619928 7.095844710615852 7.097200549753185 0 0 0
819 3 1.806429397680096 32.08251981545943 10.732886339062771 7.117711483342693 0 0 0
825 2 -0.8209322879726634 29.279950381141248 8.025050616796378 8.156293355945659 0 0 0
833 2 -0.8992463480052121 34.67377207865715 13.209418656226955 7.835998725422919 0 0 0
835 2 -0.8705551600102823 31.14263505512933 9.712341360605636 7.808701290876049 0 0 0
840 2 -0.9109037593234073 32.963923661670044 11.408333151846223 8.18565891713986 0 0 0
218 3 1.763603417559679 28.627117276445272 10.660953877670442 3.5826183235073357 0 0 0
220 3 1.803204240092515 32.010541888432236 7.092549026597687 3.5175576515135787 0 0 0
221 3 1.72584375346365 33.75863983855721 8.951853468385893 5.255523203304073 0 0 0
223 3 1.82303257719657 30.326114168199183 12.463467974701564 5.36200253358572 0 0 0
226 2 -0.8831250715044345 34.659168437574195 9.666880002611947 4.2009239863602374 0 0 0
227 2 -0.9179614533560091 31.224370157518532 11.796766474595168 6.415646545607867 0 0 0
229 2 -0.885799930011506 31.204575880074792 13.184024023987515 4.311823998447546 0 0 0
231 2 -0.8835009621046751 32.95768431308453 10.021689025650181 6.0542456070387 0 0 0
232 2 -0.9034751912811977 29.51121008641251 11.384375197299688 4.621662203414099 0 0 0
236 2 -0.823619877780658 34.64854463216398 8.135659930583383 6.271843013183702 0 0 0
237 2 -0.8841580221028653 32.774612203863875 7.978887473707312 4.538554777576853 0 0 0
238 2 -0.9143419280767238 29.389497278847 13.470768676554703 6.050828264909254 0 0 0
1799 2 -0.8743013520926666 29.303552785279244 30.942387731416545 16.949891442623354 0 0 0
1795 2 -0.9078646493409568 31.14984204397235 31.42023631175397 15.290080165463722 0 0 0
246 3 1.732969028794384 1.7809651405979503 15.964650001098192 1.784040175187023 0 0 0
248 3 1.586309328380148 5.264410723231939 19.451272149374958 1.6879293972796188 0 0 0
249 2 -0.9063572316612839 0.7020754384475338 15.188485900755449 0.9829203183811999 0 0 0
252 2 -0.7854207378811132 4.25912106234948 20.42837412891197 2.4410993819311613 0 0 0
254 2 -0.7988226445832292 5.942320652507235 18.424381244226815 2.701562194298795 0 0 0
257 2 -0.7868869247636271 6.374555980656752 20.335512482970785 0.962920559857212 0 0 0
258 2 -0.9050583533345866 2.7530017822994637 14.994439394222644 2.503293906228358 0 0 0
259 2 -0.8603828761503645 2.53959824386239 16.967413131466618 0.8502079671301864 0 0 0
263 2 -0.8128562745215816 1.0660221320749776 16.864859380719313 2.86398098257846 0 0 0
264 2 -0.8251137376080024 4.458952560446699 18.65301863583134 0.5822616076278093 0 0 0
841 3 1.793294609202232 35.61146853899346 14.248545255275923 7.182079658761566 -1 0 0
843 3 1.708144102131742 3.5019551735715075 17.66714091808283 7.239133163120443 0 0 0
849 2 -0.9192022515713349 0.8150995716717088 14.919687642127197 8.269116826532239 0 0 0
857 2 -0.7999063344840165 6.037282858472515 20.41725734323142 7.912186199754606 0 0 0
859 2 -0.8919745229423669 2.6861815916457163 16.574984913354854 7.969626421539508 0 0 0
864 2 -0.836627732948747 4.31001582929908 18.51350988301462 8.297039319531955 0 0 0
242 3 1.603323178500192 35.64168838968097 17.78860278543825 3.576055979157835 -1 0 0
244 3 1.829737363121394 3.5029725447580504 14.182131545585772 3.5837874092373347 0 0 0
245 3 1.788727679787316 5.213220401482586 15.887726419508333 5.419848611404555 0 0 0
247 3 1.619614210412901 1.7374141571345123 19.58696919451061 5.4914240746798715 0 0 0
250 2 -0.8602866507547928 6.236591083049808 16.54660547867155 4.448284198592462 0 0 0
251 2 -0.8234616266417268 2.486519613501499 18.60160841722594 6.478994861753791 0 0 0
253 2 -0.7970938295251961 2.780259660355194 20.311383156021368 4.537259078327036 0 0 0
255 2 -0.8702906373967915 4.485164371784422 16.996256408834558 6.231701245268354 0 0 0
256 2 -0.8031885064281571 0.6927174173996892 18.77633848968123 4.608272550076276 0 0 0
260 2 -0.9062567147026789 5.952431088907141 14.96376972875854 6.409604958825518 0 0 0
261 2 -0.9223293464943131 4.162124238562394 15.109367888459664 4.613299112665356 0 0 0
262 2 -0.8393705391418153 0.9879331555639406 20.682896278376326 6.340808306248485 0 0 0
1794 2 -0.9083500361300217 31.404481736797884 29.464299470582777 16.78767638559998 0 0 0
267 3 1.83250645139453 10.689484299944139 17.767126351255666 0.04805345783725609 0 0 0
270 3 1.713418966754382 8.949179857662624 15.96279994674292 1.786452728087686 0 0 0
272 3 1.74870120895261 12.497650918274502 19.502667885185836 1.7876083723207723 0 0 0
273 2 -0.8556590627242006 8.036670554537599 15.232919314502174 0.7371720985567661 0 0 0
276 2 -0.8328616339197763 11.604142438900796 20.545834205857137 2.562726617127613 0 0 0
278 2 -0.8702119591331976 13.181348537831123 18.512714809961967 2.789662010305018 0 0 0
281 2 -0.8964809446572125 13.588234604894236 20.293891858833945 1.0272867582725513 0 0 0
282 2 -0.8786505367583356 9.662630225357562 14.893108109560336 2.6774200649078055 0 0 0
283 2 -0.8937623549580886 10.01575747333967 16.82643235473905 1.064285740579197 0 0 0
287 2 -0.8318119836854772 8.07375977064049 16.93296848636262 2.668305762676141 0 0 0
288 2 -0.9119590091984633 11.665771314000697 18.716917165266786 0.7540221926719608 0 0 0
865 3 1.807475778495581 7.050300584908532 14.137757136867648 7.117317521604798 0 0 0
867 3 1.772550366162892 10.65767745179012 17.689656675885928 7.199817603196135 0 0 0
873 2 -0.906462836404728 8.07690829753493 15.067630168806286 7.805781228857529 0 0 0