LAMMPS data file via write_data, version 23 Jun 2022, timestep = 1

3000 atoms
3 atom types

0 35.65 xlo xhi
0 35.65 ylo yhi
0 35.65 zlo zhi

Masses

1 1.00784
2 15.9991
3 28.0855

Atoms # charge

1 3 1.853007911583978 2.462350323639839e-10 2.4858248792725135e-10 1.2517453740201745e-10 0 0 0
1198 2 -0.9265017165523848 29.411250000760607 34.758749999237146 13.368750002141628 0 0 0
6 3 1.852993876815706 1.7825000252440122 1.7825000252456975 1.7825000053198445 0 0 0
8 3 1.852992789862862 5.34750006524298 5.347500065240904 1.7825000269795812 0 0 0
9 2 -0.9264957892307555 0.891249999857065 0.8912499998557853 0.8912499998544557 0 0 0
12 2 -0.9264978922803744 4.456250014851698 6.238749987514948 2.6737499854874835 0 0 0
14 2 -0.9264978924104542 6.238749987513945 4.456250014852572 2.6737499854867566 0 0 0
17 2 -0.9265035034053651 6.238750000108805 6.2387500001092775 0.891250001258915 0 0 0
18 2 -0.9264968862839953 2.673750020707552 0.891249978733785 2.6737500207616263 0 0 0
19 2 -0.9264995379658967 2.673750027730611 2.673750027730057 0.8912499717089 0 0 0
23 2 -0.9264968862161145 0.8912499787353999 2.673750020706867 2.6737500207617035 0 0 0
24 2 -0.9264939137164422 4.456249986388316 4.45624998638874 0.8912499856454738 0 0 0
601 3 1.852994242621846 4.69104861622327e-08 4.691353439056911e-08 7.129999913374211 0 0 0
603 3 1.852997459244991 3.5650000298100424 3.5650000298095676 7.1299999899803135 0 0 0
609 2 -0.9265014062854846 0.8912499869196792 0.8912499869187706 8.021249985391867 0 0 0
617 2 -0.9265016857971154 6.23875000685523 6.238750006855698 8.021249993143313 0 0 0
619 2 -0.9264965845366488 2.6737499992582308 2.6737499992579705 8.021249998715055 0 0 0
624 2 -0.9264992344467311 4.456250021985853 4.456250021986236 8.021250019618732 0 0 0
2 3 1.853002072664425 35.649999936740954 3.56499997638138 3.564999919052174 -1 0 0
4 3 1.853002072916825 3.5649999763808005 35.64999993674482 3.5649999190531587 0 -1 0
5 3 1.853002587421505 5.347500075332352 1.7825000368127715 5.347500075203565 0 0 0
7 3 1.853002587711412 1.7825000368110369 5.347500075330556 5.347500075203353 0 0 0
10 2 -0.9265024977587862 6.238749987513601 2.6737499854876905 4.456250014853309 0 0 0
11 2 -0.9264977283748821 2.6737499854467175 4.456250014894805 6.238749987473474 0 0 0
13 2 -0.9265024978337569 2.6737499854883917 6.238749987514279 4.456250014853141 0 0 0
15 2 -0.9264977282595661 4.456250014893995 2.6737499854466864 6.238749987473862 0 0 0
16 2 -0.9264957358965865 0.8912499926710072 4.456249993356065 4.4562499934122055 0 0 0
20 2 -0.9265078721779385 6.238750000153733 0.8912500012162075 6.238750000155244 0 0 0
21 2 -0.9264957358328928 4.456249993355288 0.8912499926690728 4.4562499934114745 0 0 0
22 2 -0.9265078720865799 0.8912500012177459 6.238750000154173 6.238750000154857 0 0 0
1197 2 -0.9264995147702273 32.97625000004545 29.41125000004547 11.586250000045553 0 0 0
1196 2 -0.9265017167723253 34.758749999238574 29.411250000760884 13.368750002142168 0 0 0
30 3 1.853003081568911 8.912499992623252 1.7824999702263045 1.7824999900952816 0 0 0
32 3 1.852991669235865 12.47750001889769 5.347500000072996 1.7825000483672249 0 0 0
33 2 -0.9265036785031053 8.021249985294965 0.8912499868774356 0.8912499868742761 0 0 0
36 2 -0.9264967066544908 11.58625000060043 6.238750000981174 2.6737499991090643 0 0 0
38 2 -0.9265005065222348 13.368750009250602 4.4562499943851686 2.6737500060083574 0 0 0
41 2 -0.9264945966639914 13.36875002265812 6.23875002113064 0.8912499804452602 0 0 0
42 2 -0.9265050265272569 9.803750005289613 0.891249991655303 2.6737500079970022 0 0 0
43 2 -0.9265028695650696 9.803749998289645 2.6737500009984476 0.8912499985983605 0 0 0
47 2 -0.926498781189264 8.021249998672372 2.67374999929974 2.6737499992986318 0 0 0
48 2 -0.9264977635926385 11.586250006540972 4.456250007381427 0.8912500065366539 0 0 0
625 3 1.853006440464831 7.129999990021325 9.590785066126983e-08 7.12999999008207 0 0 0
627 3 1.85300561095223 10.69499999225248 3.5649999898905294 7.129999989820447 0 0 0
633 2 -0.9265040942771375 8.021249992888736 0.8912499942602632 8.021249992889704 0 0 0
641 2 -0.9265080384721056 13.368750000998642 6.238749999469924 8.021250000529758 0 0 0
643 2 -0.9265005708731021 9.803749990672207 2.6737499932251847 8.021250004901216 0 0 0
648 2 -0.9265043645397442 11.586250000376625 4.456250001061015 8.021249998849548 0 0 0
26 3 1.853004185045926 7.129999970059234 3.565000009890843 3.5650000098861536 0 0 0
28 3 1.853009347847669 10.694999958423344 35.64999995694333 3.5649999768684104 0 -1 0
29 3 1.852998090588448 12.47750006098959 1.7825000441772139 5.347500022497871 0 0 0
31 3 1.853002874975203 8.91250001661306 5.3475000044882 5.347499984711764 0 0 0
34 2 -0.9265032470230494 13.368750009187245 2.6737500059445205 4.456249994396059 0 0 0
35 2 -0.9265022508256618 9.803749990653815 4.456250007131548 6.238749995078807 0 0 0
37 2 -0.9264999542721061 9.803749997565834 6.238750001990036 4.456250000220087 0 0 0
39 2 -0.9265016927573391 11.58625000752313 2.6737499921326098 6.238749994004834 0 0 0
40 2 -0.9265000431643472 8.021250005550373 4.456250007916919 4.456250007917621 0 0 0
44 2 -0.9264976127857584 13.368750001302013 0.8912500016953184 6.238749999774381 0 0 0
45 2 -0.9264972290029737 11.586249999330857 0.8912499993282313 4.456250000172246 0 0 0
46 2 -0.9264979259636373 8.021249979117114 6.238750020881181 6.238750020883174 0 0 0
49 3 1.852997895964751 14.25999999699499 1.908097146952059e-08 4.802780040336074e-08 0 0 0
51 3 1.852998516451924 17.82500001584878 3.564999999434691 1.972938006855954e-08 0 0 0
54 3 1.852997066396303 16.042500021732405 1.7824999573626876 1.7824999770102559 0 0 0
56 3 1.853001691279857 19.60749995970116 5.347499942472878 1.782500027857074 0 0 0
57 2 -0.9265043954130925 15.151250001568082 0.8912499984571775 0.8912499985113455 0 0 0
60 2 -0.9264977210432546 18.716250018202437 6.238749989276184 2.673749987192436 0 0 0
62 2 -0.9265022440851075 20.498749993458375 4.456250007381122 2.6737499929024766 0 0 0
65 2 -0.9264965261491659 20.49875001332252 6.238750014847525 0.8912499866737166 0 0 0
66 2 -0.9265021517624707 16.933750000336325 0.8912499997177971 2.673749999834166 0 0 0
67 2 -0.9264976202159414 16.933749993088636 2.673749992742538 0.8912500069085758 0 0 0
71 2 -0.9264950679580789 15.151249994908644 2.6737500078000367 2.673750007799564 0 0 0
72 2 -0.9265034420586429 18.716250017520615 4.456250012252674 0.8912500115087333 0 0 0
649 3 1.852995923738191 14.260000014611629 35.6499999987382 7.129999952671928 0 -1 0
651 3 1.853003773208409 17.824999995730998 3.5649999996438795 7.130000000109992 0 0 0
657 2 -0.9264986041624284 15.151250002414844 0.8912499996688942 8.021249998144077 0 0 0
665 2 -0.9265078087914066 20.49875002020012 6.23875002156829 8.021249978431122 0 0 0
667 2 -0.9265019025572945 16.933749992499784 2.6737499921533168 8.021250006028815 0 0 0
672 2 -0.9265006005757916 18.71625001132942 4.456250006216086 8.021250003849946 0 0 0
50 3 1.852999617646549 14.25999990936413 3.5649999999004742 3.5649999999337703 0 0 0
52 3 1.853002580813591 17.824999952200248 5.257957269577673e-08 3.5650000427250634 0 0 0
53 3 1.852999768162905 19.607499992833688 1.7824999170829774 5.347500062417843 0 0 0
55 3 1.853009207795454 16.042500021474762 5.347500022218457 5.347500022186351 0 0 0
58 2 -0.9264898670999293 20.498750000680232 2.673750000124522 4.456250000216193 0 0 0
59 2 -0.9265027477475182 16.933749992612324 4.456250008072208 6.23874999413933 0 0 0
61 2 -0.9264991857358329 16.933749992566906 6.238749994148759 4.456250008118258 0 0 0
63 2 -0.9264974676905073 18.716250011263508 2.6737499941880305 6.238749996217723 0 0 0
64 2 -0.9264999926212536 15.151249994294657 4.456249992082481 4.456249992082909 0 0 0
68 2 -0.9265071563348408 20.49875002028059 0.8912499797189298 6.238750021805955 0 0 0
69 2 -0.9265013019763874 18.71625000363771 0.8912499977384191 4.456249998371609 0 0 0
70 2 -0.9265104969838488 15.151250009909512 6.238749994516008 6.2387499945170815 0 0 0
73 3 1.852996307123897 21.389999990401186 1.0016947271651588e-08 2.991333847290889e-08 0 0 0
1192 2 -0.9264995147140553 29.411250000044507 32.976250000044246 11.586250000044846 0 0 0
78 3 1.853004055188496 23.17249993963212 1.7824999910483472 1.7825000293263153 0 0 0
80 3 1.852999752148685 26.737499953346138 5.3474999614985 1.7825000468606675 0 0 0
81 2 -0.9264985581054713 22.281250013968407 0.8912500139667058 0.8912500139649439 0 0 0
84 2 -0.926500701094134 25.84625001444806 6.238749987133972 2.673749985204824 0 0 0
86 2 -0.9265018552455341 27.62874999345894 4.456250007435797 2.6737499929564055 0 0 0
89 2 -0.9264952314192155 27.628750013365458 6.238750014946118 0.8912499866850789 0 0 0
90 2 -0.9265019692882971 24.063750011423213 0.8912499945285667 2.6737500051248135 0 0 0
91 2 -0.9264987386869185 24.063749996653083 2.673749990457577 0.8912500092948963 0 0 0
95 2 -0.9265042567656103 22.281250006788998 2.6737499927105794 2.6737499927641277 0 0 0
96 2 -0.9265032375627105 25.846250006463283 4.456250007303168 0.89125000645896 0 0 0
673 3 1.85300137554569 21.39000000996404 1.438459378277912e-07 7.129999990093897 0 0 0
675 3 1.853001968467727 24.955000005928323 3.564999989653343 7.1299999902894475 0 0 0
681 2 -0.9265093294390639 22.281249979742483 0.8912499797416983 8.021249978216497 0 0 0
689 2 -0.9265112763531141 27.62875002022279 6.238750021591189 8.021249978409097 0 0 0
691 2 -0.9265000839274727 24.06374999637135 2.6737499902300073 8.021250008053494 0 0 0
696 2 -0.9265018209134273 25.846250007433806 4.456250008117173 8.021250005906406 0 0 0
74 3 1.853000388270018 21.39000005775843 3.565000028301494 3.5649999510520125 0 0 0
76 3 1.853000331349478 24.955000009230353 35.6499999676344 3.564999986081136 0 -1 0
77 3 1.85299506803183 26.737500019891662 1.78249994070427 5.3475000860402435 0 0 0
79 3 1.853004578158515 23.17249998980973 5.347499984976815 5.347499984973584 0 0 0
82 2 -0.9264910329134662 27.628749993647357 2.67374999308941 4.45625000724999 0 0 0
83 2 -0.9265006674267315 24.06374999649115 4.456250009989633 6.238749992064637 0 0 0
85 2 -0.9264980225563972 24.063749996489896 6.238749992062238 4.456250009991252 0 0 0
87 2 -0.9264979245340103 25.84625001453598 2.6737499851187665 6.238749986994319 0 0 0
88 2 -0.9265008829303051 22.281249999718053 4.456250000499936 4.456250000555621 0 0 0
92 2 -0.9265070337006853 27.628750013246297 0.8912499867526917 6.238750014771996 0 0 0
93 2 -0.9264958482440407 25.846249992374986 0.8912499923714675 4.456249993215733 0 0 0
94 2 -0.926507477583059 22.281249979800343 6.238750021568597 6.238750021570824 0 0 0
97 3 1.853003535094022 28.52000002031378 2.0029170322288792e-08 1.9969013109744083e-08 0 0 0
99 3 1.853001076872933 32.08499998942755 3.564999984714691 2.5419064186849027e-08 0 0 0
102 3 1.853001856494611 30.30249993753223 1.7825000667667295 1.7824999533783814 0 0 0
104 3 1.852998510677073 33.867499963307594 5.347499931641838 1.7825000967695297 0 0 0
105 2 -0.9265042826754926 29.41125001397083 0.8912500139675357 0.8912500139651156 0 0 0
108 2 -0.9264983295595128 32.97625001449215 6.238749987090134 2.673749985218155 0 0 0
110 2 -0.92650983296954 34.75875000738356 4.456249993510045 2.6737500069392013 0 0 0
113 2 -0.9264904594590424 34.75874999941897 6.2387500009443855 0.8912500006320317 0 0 0
114 2 -0.926493778512325 31.19375000328599 0.8912499907615486 2.6737500087363584 0 0 0
115 2 -0.9265028479139836 31.193749982361215 2.673749987812693 0.891250011629127 0 0 0
119 2 -0.9265038237223709 29.41125000683337 2.6737499926672736 2.673749992720479 0 0 0
120 2 -0.9264993002707861 32.976250013453935 4.456250014347083 0.8912500134490792 0 0 0
697 3 1.853000005406256 28.51999996016947 1.3387217134841478e-07 7.13000000004772 0 0 0
699 3 1.853003130680896 32.08500002410586 3.5649999997247 7.129999980110315 0 0 0
705 2 -0.9265071579740065 29.411249972752845 0.8912499727514053 8.021249971226231 0 0 0
713 2 -0.9265028948812714 34.75875000631035 6.238750007678647 8.021249992320564 0 0 0
715 2 -0.9264994937299602 31.193749995727355 2.6737500011784148 8.021249996793086 0 0 0
720 2 -0.9265061243301964 32.976250007411565 4.45625000809425 8.021250005883749 0 0 0
98 3 1.852999568545117 28.52000004786092 3.5650000182783392 3.5649999610147054 0 0 0
100 3 1.852999423690136 32.0850000272417 35.649999890970065 3.565000062634708 0 -1 0
101 3 1.852993598035239 33.86750001987805 1.7824999806335182 5.347500046172666 0 0 0
103 3 1.853003253941558 30.30249999787444 5.347499985059226 5.347499985022437 0 0 0
106 2 -0.9264989772515985 34.7587500075925 2.673750007092007 4.456249993303767 0 0 0
107 2 -0.9265005529199916 31.19374998867275 4.456250006215066 6.238749996151361 0 0 0
109 2 -0.9264963331925052 31.19374998868245 6.2387499961054935 4.4562500062611115 0 0 0
111 2 -0.9264975933837887 32.976250014514754 2.6737499851409128 6.238749987015048 0 0 0
112 2 -0.9265008934677356 29.411249999740775 4.456250000522248 4.456250000577816 0 0 0
116 2 -0.9264971368247509 34.75874999925454 0.8912500007428924 6.238750000779973 0 0 0
117 2 -0.9264959237926621 32.97624999237654 0.8912499923708893 4.456249993215805 0 0 0
118 2 -0.9265086849908019 29.411249979777736 6.23875002159111 6.238750021592939 0 0 0
1191 2 -0.9265048065892953 32.976249991870056 31.19375000218158 13.36875001118738 0 0 0
1189 2 -0.9264998571911193 31.19374999590735 34.75875000185456 11.586249998145004 0 0 0
126 3 1.853003081932478 1.7824999702241382 8.912499992624513 1.7824999900958771 0 0 0
128 3 1.85299166904711 5.34750000007371 12.47750001889627 1.7825000483676663 0 0 0
129 2 -0.9265036784327896 0.8912499868785068 8.021249985294729 0.8912499868737266 0 0 0
132 2 -0.9265005064037614 4.4562499943847 13.368750009251224 2.6737500060082704 0 0 0
134 2 -0.9264967065011569 6.238750000980243 11.586250000600993 2.6737499991084404 0 0 0
137 2 -0.9264945968962272 6.238750021130263 13.368750022658293 0.8912499804449964 0 0 0
138 2 -0.9264987811841511 2.6737499993012523 8.021249998671639 2.6737499992989386 0 0 0
139 2 -0.9265028695798703 2.673750000998905 9.803749998289007 0.8912499985981787 0 0 0
143 2 -0.9265050263954651 0.8912499916566766 9.803750005288986 2.6737500079968073 0 0 0
144 2 -0.9264977634741826 4.456250007381451 11.586250006540922 0.891250006536552 0 0 0
721 3 1.853006440274388 9.5904084673748e-08 7.129999990021185 7.12999999008317 0 0 0
723 3 1.853005610630029 3.564999989889197 10.694999992252587 7.129999989820015 0 0 0
729 2 -0.926504094352703 0.8912499942613797 8.02124999288809 8.021249992888622 0 0 0
737 2 -0.9265080384645223 6.238749999469705 13.368750000999194 8.02125000053016 0 0 0
739 2 -0.9265005709690914 2.673749993226208 9.803749990671797 8.02125000490096 0 0 0
744 2 -0.9265043643845738 4.456250001061503 11.586250000376848 8.021249998849873 0 0 0
122 3 1.853009347447654 35.64999995694048 10.694999958424638 3.564999976867776 -1 0 0
124 3 1.853004184870304 3.565000009891245 7.129999970059491 3.5650000098866887 0 0 0
125 3 1.853002875088609 5.347500004488716 8.912500016613892 5.347499984712421 0 0 0
127 3 1.852998090667781 1.7825000441752554 12.477500060988458 5.347500022498566 0 0 0
130 2 -0.9264999542871466 6.238750001989668 9.803749997565388 4.45625000022019 0 0 0
131 2 -0.9265016927761139 2.6737499921335557 11.586250007523057 6.238749994004688 0 0 0
133 2 -0.9265032472377609 2.6737500059458195 13.368750009188467 4.456249994395171 0 0 0
135 2 -0.9265022507683243 4.456250007131397 9.80374999065309 6.238749995078359 0 0 0
136 2 -0.9264972289657741 0.8912499993292692 11.586249999330589 4.456250000171849 0 0 0
140 2 -0.9264979261180196 6.238750020881189 8.021249979117178 6.238750020883376 0 0 0
141 2 -0.9265000432973963 4.456250007916065 8.021250005549282 4.45625000791673 0 0 0
142 2 -0.9264976129668004 0.8912500016961039 13.368750001302935 6.238749999774658 0 0 0
145 3 1.853006852463475 7.13000000994386 7.130000009944883 1.157735579071506e-07 0 0 0
147 3 1.852992489876997 10.695000024953048 10.69500002495288 4.3570272723059134e-08 0 0 0
150 3 1.852999916272188 8.912499969287616 8.912499969288351 1.782499927113735 0 0 0
152 3 1.85299600082597 12.47749994500673 12.477499945006771 1.7825000138763614 0 0 0
153 2 -0.9265091027179612 8.02125000693679 8.021250006936903 0.8912500083043936 0 0 0
156 2 -0.9264998234021309 11.586250000843608 13.368750002210902 2.673749998965596 0 0 0
158 2 -0.9264998233163725 13.368750002210717 11.586250000843663 2.673749998965558 0 0 0
161 2 -0.9264879079151701 13.36875000779871 13.36875000779858 0.8912499952500282 0 0 0
162 2 -0.9264949390560855 9.803749983861719 8.02125001171304 2.6737499864117162 0 0 0
163 2 -0.926497817605327 9.80374999913601 9.803749999135906 0.8912499978044955 0 0 0
167 2 -0.9264949390039793 8.021250011713272 9.803749983860962 2.6737499864112 0 0 0
168 2 -0.926502431286055 11.586249985975437 11.586249985975394 0.8912499859713837 0 0 0
745 3 1.852997523361517 7.1299999999851345 7.129999999985412 7.130000039830324 0 0 0
747 3 1.85300131708329 10.694999919971064 10.694999919971838 7.129999948636112 0 0 0
753 2 -0.9264977561614141 8.021249993076546 8.02124999307653 8.02124999313215 0 0 0
761 2 -0.9264966923347664 13.368749986472539 13.368749986472965 8.021250015001561 0 0 0
763 2 -0.9264995650784377 9.80374999137844 9.803749991378185 8.02125000403968 0 0 0
768 2 -0.9264939896459828 11.586250000336575 11.586250000336616 8.02124999896614 0 0 0
146 3 1.852996802003752 7.129999966783533 10.695000015162059 3.5650000129412 0 0 0
148 3 1.852996802056476 10.6950000151609 7.129999966781756 3.5650000129405464 0 0 0
149 3 1.853006446211632 12.477499978020791 8.912500023015271 5.347499998226041 0 0 0
151 3 1.853006446124735 8.912500023013193 12.477499978020775 5.347499998226804 0 0 0
154 2 -0.9265001417020861 13.368750010202815 9.803750004406371 4.4562499933809985 0 0 0
155 2 -0.9265032766612787 9.803750011355485 11.586249985647045 6.238750015880953 0 0 0
157 2 -0.9265001415477527 9.80375000440682 13.368750010203248 4.4562499933808715 0 0 0
159 2 -0.926503276832691 11.586249985647258 9.80375001135496 6.238750015880731 0 0 0
160 2 -0.9265005001321271 8.021249991893084 11.58624999342053 4.456249994105171 0 0 0
164 2 -0.9265061820560446 13.36875000104197 8.021250000485528 6.238749999514281 0 0 0
165 2 -0.9265005002337321 11.586249993420276 8.0212499918931 4.456249994104959 0 0 0
166 2 -0.9265061819222593 8.021250000485056 13.368750001042644 6.238749999515005 0 0 0
1187 2 -0.9265048064551151 31.193750002182068 32.9762499918688 13.368750011187526 0 0 0
1186 2 -0.9264998573069829 34.75875000185549 31.193749995907393 11.58624999814542 0 0 0
174 3 1.853002298538827 16.042500087964648 8.91250002649599 1.7825000043539252 0 0 0
176 3 1.853000060782639 19.607500054322088 12.47750004697882 1.782500028712643 0 0 0
177 2 -0.9264956125467007 15.151249995337595 8.021249991066657 0.8912499925912057 0 0 0
180 2 -0.9265001396814634 18.716249997767854 13.368750011083378 2.673750007839344 0 0 0
182 2 -0.9265013931687095 20.49874999995668 11.5862499999892 2.673749999553991 0 0 0
185 2 -0.9265071828572418 20.498750005770138 13.368750008768657 0.8912499940712452 0 0 0
186 2 -0.9265008388261796 16.933749978519486 8.021250019953907 2.6737499782272085 0 0 0
187 2 -0.9265022255531581 16.933749987263084 9.80374998420919 0.8912500128883983 0 0 0
191 2 -0.9264976175448371 15.151250015231227 9.80374998477047 2.673749987321324 0 0 0
192 2 -0.9264892518703679 18.716250003708527 11.586249997699356 0.8912499976953202 0 0 0
769 3 1.853015734834473 14.260000006823832 7.129999989945858 7.129999990071402 0 0 0
771 3 1.853001887477996 17.8250000578737 10.694999931108143 7.130000042278417 0 0 0
777 2 -0.9265062679666071 15.15125000287629 8.021249998449091 8.02124999844915 0 0 0
785 2 -0.9265038568461728 20.49875000581549 13.36875000871478 8.021249992870294 0 0 0
787 2 -0.9265037217957782 16.933750014352345 9.803750011298918 8.021249984065928 0 0 0
792 2 -0.926501056338939 18.716249997474186 11.586249991521598 8.021249989995535 0 0 0
170 3 1.853002566292186 14.260000002257986 10.695000055540255 3.5650000333980882 0 0 0
172 3 1.852994191657775 17.82499997135254 7.130000024370357 3.5649999842024265 0 0 0
173 3 1.852995755576055 19.60749998261589 8.91250003646989 5.347500004359395 0 0 0
175 3 1.853002074030796 16.042499897813734 12.477500031189852 5.347499944883317 0 0 0
178 2 -0.9264960019345769 20.49875000114363 9.803749998089897 4.456249999641683 0 0 0
179 2 -0.926493809343939 16.933749992608227 11.5862500073368 6.238749993980258 0 0 0
181 2 -0.9265003135026142 16.933749992416573 13.368749995526464 4.45625000811214 0 0 0
183 2 -0.9264993286366515 18.716249996680432 9.803750006163854 6.238750010744406 0 0 0
184 2 -0.9265068771708301 15.15125001576855 11.586250012715572 4.456250013555526 0 0 0
188 2 -0.9265018507866155 20.49875002024448 8.021249978386717 6.238750021614128 0 0 0
189 2 -0.926490784766608 18.71625001127455 8.02125000385078 4.456250006216841 0 0 0
190 2 -0.9264990240901072 15.151250024600923 13.368749981196606 6.23874997976955 0 0 0
1183 3 1.853004924630858 30.30250001376573 33.86749998984831 12.47750000822527 0 0 0
1181 3 1.853004924400296 33.86749998984594 30.30250001376556 12.477500008224567 0 0 0
198 3 1.852998007883593 23.17250003759566 8.912499978445597 1.7825000515490423 0 0 0
200 3 1.853001388805871 26.737500010161963 12.477499988534783 1.782499970396569 0 0 0
201 2 -0.9264974364075992 22.281250000592916 8.021249999065988 0.8912500006986744 0 0 0
204 2 -0.9265012483361232 25.846250000965924 13.368750002088829 2.67374999889929 0 0 0
206 2 -0.9264988521821155 27.62875000696854 11.586249992976274 2.6737500066206144 0 0 0
209 2 -0.9265046174796049 27.6287500127391 13.368750015792015 0.8912499871012861 0 0 0
210 2 -0.9265027692608256 24.06374997547676 8.021250028894649 2.6737499693886617 0 0 0
211 2 -0.9264981857862131 24.063749991499 9.803749982648917 0.89125001460651 0 0 0
215 2 -0.9264979451811117 22.28125001991608 9.803749976919622 2.6737499795264514 0 0 0
216 2 -0.9264991252556072 25.84624998607606 11.58624998607548 0.8912499860143867 0 0 0
793 3 1.853012213913894 21.3900000099599 7.130000009836316 7.130000009959069 0 0 0
795 3 1.85299219772565 24.954999977110614 10.69499995408065 7.129999914716839 0 0 0
801 2 -0.9265019501762275 22.28124998676947 8.021249985400164 8.021249985400987 0 0 0
809 2 -0.9264983935819304 27.628749991780786 13.368749994680392 8.021250006850421 0 0 0
811 2 -0.926491985830896 24.063750011494466 9.803750002587591 8.021249992988876 0 0 0
816 2 -0.9264886909080068 25.84625000048089 11.586250000425187 8.021249999109791 0 0 0
194 3 1.852997131159904 21.38999997210331 10.695000000536247 3.5649999987994367 0 0 0
196 3 1.852996155371199 24.954999976399666 7.130000019689356 3.5649999599779747 0 0 0
197 3 1.852994918938163 26.73749997663565 8.912500046548233 5.3475000143663305 0 0 0
199 3 1.853004272380209 23.172500039263497 12.477499964430942 5.347499994374307 0 0 0
202 2 -0.9264980521575029 27.628750001188244 9.803749998134172 4.4562499995977864 0 0 0
203 2 -0.926502321776289 24.0637500174753 11.58624998853424 6.238750012893082 0 0 0
205 2 -0.9265051682119229 24.063749996168923 13.368749993269718 4.456250010524733 0 0 0
207 2 -0.9264997257230865 25.846249985748198 9.803750011200007 6.238750015836953 0 0 0
208 2 -0.9264975957156527 22.281249999865185 11.586249999919715 4.456250000549322 0 0 0
212 2 -0.9265038537293487 27.6287500202668 8.021249978364619 6.238750021636132 0 0 0
213 2 -0.9264917366133953 25.846250007390644 8.021250005863935 4.456250008074366 0 0 0
214 2 -0.9265042283654742 22.28124999419646 13.368750008758697 6.23875000717726 0 0 0
1180 3 1.852998846755805 32.08500002414913 28.51999998021636 10.694999942378189 0 0 0
219 3 1.852995831363963 32.08499995537969 10.695000019814135 2.893069250831104e-08 0 0 0
222 3 1.853000235941793 30.30250006440349 8.912500026375088 1.782500003576146 0 0 0
224 3 1.853002178247019 33.86750001024815 12.477499988548914 1.7824999901525984 0 0 0
225 2 -0.9264979360441473 29.411249993515973 8.02124999204316 0.8912499936209147 0 0 0
228 2 -0.9265001377438887 32.97625000100827 13.368750002046468 2.673749998856283 0 0 0
230 2 -0.9265037265930088 34.75875000695606 11.586249993042472 2.673750006610163 0 0 0
233 2 -0.9265020113433892 34.758750005758806 13.368750008869501 0.8912499940798243 0 0 0
234 2 -0.9264998136326772 31.193749974829927 8.021250017636238 2.67374998033411 0 0 0
235 2 -0.9265037630877818 31.19374998314185 9.803749986095216 0.8912500108465476 0 0 0
239 2 -0.9265012585467507 29.411250012815923 9.803749984020056 2.6737499865709897 0 0 0
240 2 -0.9264969802294893 32.97624999303124 11.586249993031014 0.8912499929702579 0 0 0
817 3 1.853014163089068 28.520000000003286 7.129999999873341 7.129999999996787 0 0 0
819 3 1.852993857819625 32.084999952095714 10.694999921132581 7.129999947713814 0 0 0
825 2 -0.9265043575433465 29.411249979734613 8.021249978364844 8.021249978365505 0 0 0
833 2 -0.9264945722853591 34.7587499847592 13.368749987659385 8.021250013814283 0 0 0
835 2 -0.9264977252293197 31.19375000329747 9.803750006139872 8.021249989278752 0 0 0
840 2 -0.9264896947177149 32.97625000741544 11.586250007359478 8.021250006044177 0 0 0
218 3 1.85300402539579 28.519999972140305 10.695000000502775 3.5650000187229227 0 0 0
220 3 1.852996009525114 32.085000008774294 7.1299999953709365 3.5649999842934172 0 0 0
221 3 1.852998814940807 33.867499966611554 8.912500056482791 5.347499984500846 0 0 0
223 3 1.853004694082571 30.30250003708354 12.47749997386492 5.347499984693268 0 0 0
226 2 -0.9265061064152968 34.758750001175144 9.803749998120342 4.456249999666613 0 0 0
227 2 -0.9265017739636096 31.193750002550114 11.58624999155378 6.238750010027885 0 0 0
229 2 -0.9265052898662547 31.193749988308298 13.368749997159071 4.456250006479387 0 0 0
231 2 -0.9265014101529752 32.97624999270477 9.803750004242273 6.238750008879563 0 0 0
232 2 -0.9265024525007038 29.411249999821386 11.586249999875408 4.456250000506152 0 0 0
236 2 -0.9264967929478531 34.758750006332136 8.021249992298657 6.238750007701178 0 0 0
237 2 -0.926495512681648 32.97625000743507 8.021250005851996 4.4562500081183485 0 0 0
238 2 -0.926500143929434 29.411249994238716 13.368750008715788 6.238750007132877 0 0 0
241 3 1.852997896199185 1.907783797605589e-08 14.259999996994106 4.802852515695122e-08 0 0 0
243 3 1.852998516506894 3.5649999994348387 17.825000015849774 1.972985774756353e-08 0 0 0
246 3 1.852997066581488 1.7824999573603482 16.042500021732472 1.7824999770110692 0 0 0
248 3 1.853001690758334 5.347499942474819 19.60749995970091 1.7825000278568564 0 0 0
249 2 -0.9265043955020956 0.8912499984585237 15.151250001568622 0.8912499985107379 0 0 0
252 2 -0.9265022441339138 4.45625000738019 20.498749993458784 2.673749992902892 0 0 0
254 2 -0.9264977212131895 6.238749989275062 18.716250018202942 2.6737499871919903 0 0 0
257 2 -0.9264965263501392 6.238750014846977 20.498750013322404 0.8912499866734921 0 0 0
258 2 -0.9264950680807279 2.673750007800864 15.151249994908664 2.673750007799322 0 0 0
259 2 -0.9264976203034301 2.6737499927424215 16.933749993087783 0.8912500069084884 0 0 0
263 2 -0.9265021517195352 0.8912499997191446 16.933750000335603 2.673749999833512 0 0 0
264 2 -0.9265034420140543 4.456250012251937 18.716250017520128 0.891250011508576 0 0 0
841 3 1.852995923758624 35.649999998735176 14.260000014610254 7.129999952671824 -1 0 0
843 3 1.853003773268703 3.5649999996433572 17.824999995730522 7.1300000001096135 0 0 0
849 2 -0.9264986043541232 0.8912499996703437 15.151250002415027 8.021249998143544 0 0 0
857 2 -0.9265078090055683 6.238750021567672 20.498750020199665 8.02124997843183 0 0 0
859 2 -0.9265019027324182 2.673749992153903 16.93374999249939 8.02125000602914 0 0 0
864 2 -0.9265006006581827 4.456250006216222 18.716250011329556 8.021250003850813 0 0 0
242 3 1.853002580616851 5.2575833020540585e-08 17.82499995220137 3.5650000427248316 0 0 0
244 3 1.85299961743545 3.5649999999002717 14.259999909363472 3.5649999999356967 0 0 0
245 3 1.853009207398499 5.34750002221975 16.042500021474144 5.347500022186968 0 0 0
247 3 1.852999768119965 1.7824999170813627 19.60749999283331 5.347500062418367 0 0 0
250 2 -0.9264991858983758 6.238749994148148 16.93374999256619 4.456250008119053 0 0 0
251 2 -0.9264974679176115 2.6737499941881877 18.716250011263867 6.238749996217279 0 0 0
253 2 -0.9264898674238237 2.673750000124721 20.498750000680158 4.456250000216053 0 0 0
255 2 -0.9265027477669745 4.456250008072394 16.933749992611556 6.2387499941390425 0 0 0
256 2 -0.9265013019848418 0.8912499977398806 18.716250003637782 4.45624999837171 0 0 0
260 2 -0.9265104969256354 6.238749994516246 15.1512500099097 6.23874999451788 0 0 0
261 2 -0.9264999926938261 4.456249992082307 15.151249994294558 4.456249992082553 0 0 0
262 2 -0.9265071560009024 0.8912499797196626 20.498750020281047 6.238750021806302 0 0 0
1178 3 1.852998847282966 28.519999980219566 32.08500002415055 10.694999942379027 0 0 0
1800 2 -0.926496791333318 32.976249992141234 32.97624999213997 15.151249995041427 0 0 0
270 3 1.853002297901673 8.912500026496042 16.042500087966182 1.7825000043544075 0 0 0
272 3 1.853000060659284 12.477500046978982 19.6075000543214 1.782500028712651 0 0 0
273 2 -0.9264956125620585 8.021249991066494 15.151249995337349 0.8912499925906501 0 0 0
276 2 -0.9265013931438103 11.586249999989127 20.498749999956967 2.6737499995543184 0 0 0
278 2 -0.9265001395203859 13.36875001108314 18.716249997768006 2.673750007839304 0 0 0
281 2 -0.9265071826100947 13.368750008768904 20.49875000577047 0.8912499940708688 0 0 0
282 2 -0.9264976172802605 9.803749984770755 15.151250015230831 2.673749987321329 0 0 0
283 2 -0.9265022255303811 9.803749984209402 16.933749987262868 0.891250012887968 0 0 0
287 2 -0.9265008388301081 8.021250019954076 16.93374997851879 2.6737499782268017 0 0 0
288 2 -0.9264892518871313 11.586249997699655 18.71625000370857 0.8912499976950651 0 0 0
865 3 1.853015734711542 7.129999989945046 14.26000000682167 7.129999990069023 0 0 0
867 3 1.853001887605466 10.694999931107965 17.82500005787385 7.1300000422776435 0 0 0