LAMMPS data file via write_data, version 23 Jun 2022, timestep = 0

648 atoms
3 atom types

0 21.48 xlo xhi
0 21.48 ylo yhi
0 21.48 zlo zhi

Masses

1 1.00784
2 15.9991
3 28.0855

Atoms # charge

1 3 1.807755884958111 0 0 0 0 0 0
2 3 1.807755884958193 0 3.58 3.58 0 0 0
3 3 1.807755884958093 3.58 3.58 0 0 0 0
4 3 1.807755884958173 3.58 0 3.58 0 0 0
5 3 1.807755884958297 5.37 1.79 5.37 0 0 0
6 3 1.807755884958405 1.79 1.79 1.79 0 0 0
7 3 1.807755884958377 1.79 5.37 5.37 0 0 0
8 3 1.807755884958369 5.37 5.37 1.79 0 0 0
9 2 -0.9038779424792622 0.895 0.895 0.895 0 0 0
10 2 -0.9038779424792042 6.265 2.685 4.475 0 0 0
11 2 -0.9038779424794109 2.685 4.475 6.265 0 0 0
12 2 -0.9038779424791422 4.475 6.265 2.685 0 0 0
13 2 -0.903877942479188 2.685 6.265 4.475 0 0 0
14 2 -0.9038779424791529 6.265 4.475 2.685 0 0 0
15 2 -0.9038779424793628 4.475 2.685 6.265 0 0 0
16 2 -0.9038779424795678 0.895 4.475 4.475 0 0 0
17 2 -0.9038779424789567 6.265 6.265 0.895 0 0 0
18 2 -0.9038779424792668 2.685 0.895 2.685 0 0 0
19 2 -0.9038779424792843 2.685 2.685 0.895 0 0 0
20 2 -0.9038779424790774 6.265 0.895 6.265 0 0 0
21 2 -0.903877942479597 4.475 0.895 4.475 0 0 0
22 2 -0.9038779424790013 0.895 6.265 6.265 0 0 0
23 2 -0.9038779424792325 0.895 2.685 2.685 0 0 0
24 2 -0.9038779424796936 4.475 4.475 0.895 0 0 0
25 3 1.807755884958257 7.16 0 0 0 0 0
26 3 1.807755884958463 7.16 3.58 3.58 0 0 0
27 3 1.807755884958407 10.74 3.58 0 0 0 0
28 3 1.807755884958399 10.74 0 3.58 0 0 0
29 3 1.80775588495843 12.530000000000001 1.79 5.37 0 0 0
30 3 1.807755884958482 8.95 1.79 1.79 0 0 0
31 3 1.807755884958489 8.95 5.37 5.37 0 0 0
32 3 1.807755884958487 12.530000000000001 5.37 1.79 0 0 0
33 2 -0.9038779424790935 8.055 0.895 0.895 0 0 0
34 2 -0.9038779424795033 13.425 2.685 4.475 0 0 0
35 2 -0.9038779424793427 9.845 4.475 6.265 0 0 0
36 2 -0.9038779424792108 11.635 6.265 2.685 0 0 0
37 2 -0.9038779424792319 9.845 6.265 4.475 0 0 0
38 2 -0.9038779424794394 13.425 4.475 2.685 0 0 0
39 2 -0.9038779424792907 11.635 2.685 6.265 0 0 0
40 2 -0.9038779424794664 8.055 4.475 4.475 0 0 0
41 2 -0.9038779424791987 13.425 6.265 0.895 0 0 0
42 2 -0.9038779424793104 9.845 0.895 2.685 0 0 0
43 2 -0.9038779424793048 9.845 2.685 0.895 0 0 0
44 2 -0.9038779424792431 13.425 0.895 6.265 0 0 0
45 2 -0.9038779424794731 11.635 0.895 4.475 0 0 0
46 2 -0.9038779424786991 8.055 6.265 6.265 0 0 0
47 2 -0.9038779424791675 8.055 2.685 2.685 0 0 0
48 2 -0.9038779424795009 11.635 4.475 0.895 0 0 0
49 3 1.807755884958286 14.32 0 0 0 0 0
50 3 1.807755884958347 14.32 3.58 3.58 0 0 0
51 3 1.807755884958421 17.9 3.58 0 0 0 0
52 3 1.807755884958522 17.9 0 3.58 0 0 0
53 3 1.807755884958602 19.69 1.79 5.37 0 0 0
54 3 1.807755884958627 16.11 1.79 1.79 0 0 0
55 3 1.807755884958709 16.11 5.37 5.37 0 0 0
56 3 1.807755884958601 19.69 5.37 1.79 0 0 0
57 2 -0.903877942479093 15.215 0.895 0.895 0 0 0
58 2 -0.9038779424793977 20.585 2.685 4.475 0 0 0
59 2 -0.9038779424791775 17.005 4.475 6.265 0 0 0
60 2 -0.90387794247927 18.795 6.265 2.685 0 0 0
61 2 -0.903877942479252 17.005 6.265 4.475 0 0 0
62 2 -0.903877942479312 20.585 4.475 2.685 0 0 0
63 2 -0.9038779424792022 18.795 2.685 6.265 0 0 0
64 2 -0.9038779424794009 15.215 4.475 4.475 0 0 0
65 2 -0.9038779424791793 20.585 6.265 0.895 0 0 0
66 2 -0.9038779424793539 17.005 0.895 2.685 0 0 0
67 2 -0.9038779424793595 17.005 2.685 0.895 0 0 0
68 2 -0.903877942479154 20.585 0.895 6.265 0 0 0
69 2 -0.9038779424796003 18.795 0.895 4.475 0 0 0
70 2 -0.9038779424787307 15.215 6.265 6.265 0 0 0
71 2 -0.903877942479277 15.215 2.685 2.685 0 0 0
72 2 -0.9038779424795816 18.795 4.475 0.895 0 0 0
73 3 1.80775588495819 0 7.16 0 0 0 0
74 3 1.807755884958422 0 10.74 3.58 0 0 0
75 3 1.807755884958439 3.58 10.74 0 0 0 0
76 3 1.807755884958609 3.58 7.16 3.58 0 0 0
77 3 1.807755884958415 5.37 8.95 5.37 0 0 0
78 3 1.807755884958502 1.79 8.95 1.79 0 0 0
79 3 1.807755884958392 1.79 12.530000000000001 5.37 0 0 0
80 3 1.807755884958595 5.37 12.530000000000001 1.79 0 0 0
81 2 -0.903877942479155 0.895 8.055 0.895 0 0 0
82 2 -0.9038779424793062 6.265 9.845 4.475 0 0 0
83 2 -0.9038779424792798 2.685 11.635 6.265 0 0 0
84 2 -0.9038779424793881 4.475 13.425 2.685 0 0 0
85 2 -0.9038779424794746 2.685 13.425 4.475 0 0 0
86 2 -0.903877942479158 6.265 11.635 2.685 0 0 0
87 2 -0.9038779424793713 4.475 9.845 6.265 0 0 0
88 2 -0.9038779424794356 0.895 11.635 4.475 0 0 0
89 2 -0.9038779424791407 6.265 13.425 0.895 0 0 0
90 2 -0.9038779424791314 2.685 8.055 2.685 0 0 0
91 2 -0.9038779424793025 2.685 9.845 0.895 0 0 0
92 2 -0.9038779424787176 6.265 8.055 6.265 0 0 0
93 2 -0.9038779424794126 4.475 8.055 4.475 0 0 0
94 2 -0.9038779424791984 0.895 13.425 6.265 0 0 0
95 2 -0.9038779424792691 0.895 9.845 2.685 0 0 0
96 2 -0.9038779424796074 4.475 11.635 0.895 0 0 0
97 3 1.807755884958465 7.16 7.16 0 0 0 0
98 3 1.807755884958622 7.16 10.74 3.58 0 0 0
99 3 1.807755884958622 10.74 10.74 0 0 0 0
100 3 1.807755884958679 10.74 7.16 3.58 0 0 0
101 3 1.807755884958402 12.530000000000001 8.95 5.37 0 0 0
102 3 1.807755884958447 8.95 8.95 1.79 0 0 0
103 3 1.80775588495845 8.95 12.530000000000001 5.37 0 0 0
104 3 1.807755884958495 12.530000000000001 12.530000000000001 1.79 0 0 0
105 2 -0.9038779424788643 8.055 8.055 0.895 0 0 0
106 2 -0.9038779424795117 13.425 9.845 4.475 0 0 0
107 2 -0.9038779424793388 9.845 11.635 6.265 0 0 0
108 2 -0.9038779424793491 11.635 13.425 2.685 0 0 0
109 2 -0.9038779424794591 9.845 13.425 4.475 0 0 0
110 2 -0.9038779424793896 13.425 11.635 2.685 0 0 0
111 2 -0.9038779424793743 11.635 9.845 6.265 0 0 0
112 2 -0.9038779424793949 8.055 11.635 4.475 0 0 0
113 2 -0.9038779424793459 13.425 13.425 0.895 0 0 0
114 2 -0.903877942479187 9.845 8.055 2.685 0 0 0
115 2 -0.9038779424794197 9.845 9.845 0.895 0 0 0
116 2 -0.9038779424790269 13.425 8.055 6.265 0 0 0
117 2 -0.903877942479318 11.635 8.055 4.475 0 0 0
118 2 -0.9038779424790208 8.055 13.425 6.265 0 0 0
119 2 -0.9038779424792381 8.055 9.845 2.685 0 0 0
120 2 -0.9038779424793665 11.635 11.635 0.895 0 0 0
121 3 1.807755884958477 14.32 7.16 0 0 0 0
122 3 1.80775588495854 14.32 10.74 3.58 0 0 0
123 3 1.807755884958535 17.9 10.74 0 0 0 0
124 3 1.807755884958495 17.9 7.16 3.58 0 0 0
125 3 1.807755884958481 19.69 8.95 5.37 0 0 0
126 3 1.807755884958483 16.11 8.95 1.79 0 0 0
127 3 1.80775588495871 16.11 12.530000000000001 5.37 0 0 0
128 3 1.807755884958467 19.69 12.530000000000001 1.79 0 0 0
129 2 -0.9038779424790012 15.215 8.055 0.895 0 0 0
130 2 -0.9038779424794634 20.585 9.845 4.475 0 0 0
131 2 -0.9038779424791286 17.005 11.635 6.265 0 0 0
132 2 -0.9038779424793227 18.795 13.425 2.685 0 0 0
133 2 -0.9038779424793487 17.005 13.425 4.475 0 0 0
134 2 -0.9038779424792279 20.585 11.635 2.685 0 0 0
135 2 -0.9038779424792817 18.795 9.845 6.265 0 0 0
136 2 -0.9038779424793603 15.215 11.635 4.475 0 0 0
137 2 -0.9038779424793142 20.585 13.425 0.895 0 0 0
138 2 -0.9038779424791578 17.005 8.055 2.685 0 0 0
139 2 -0.9038779424794245 17.005 9.845 0.895 0 0 0
140 2 -0.9038779424790255 20.585 8.055 6.265 0 0 0
141 2 -0.9038779424794587 18.795 8.055 4.475 0 0 0
142 2 -0.9038779424789789 15.215 13.425 6.265 0 0 0
143 2 -0.9038779424793406 15.215 9.845 2.685 0 0 0
144 2 -0.9038779424794704 18.795 11.635 0.895 0 0 0
145 3 1.807755884958151 0 14.32 0 0 0 0
146 3 1.807755884958558 0 17.9 3.58 0 0 0
147 3 1.807755884958502 3.58 17.9 0 0 0 0
148 3 1.807755884958424 3.58 14.32 3.58 0 0 0
149 3 1.807755884958645 5.37 16.11 5.37 0 0 0
150 3 1.807755884958459 1.79 16.11 1.79 0 0 0
151 3 1.807755884958462 1.79 19.69 5.37 0 0 0
152 3 1.807755884958623 5.37 19.69 1.79 0 0 0
153 2 -0.9038779424792418 0.895 15.215 0.895 0 0 0
154 2 -0.9038779424792445 6.265 17.005 4.475 0 0 0
155 2 -0.9038779424792233 2.685 18.795 6.265 0 0 0
156 2 -0.9038779424793271 4.475 20.585 2.685 0 0 0
157 2 -0.9038779424795103 2.685 20.585 4.475 0 0 0
158 2 -0.9038779424792024 6.265 18.795 2.685 0 0 0
159 2 -0.9038779424791074 4.475 17.005 6.265 0 0 0
160 2 -0.9038779424795554 0.895 18.795 4.475 0 0 0
161 2 -0.9038779424791353 6.265 20.585 0.895 0 0 0
162 2 -0.9038779424792786 2.685 15.215 2.685 0 0 0
163 2 -0.9038779424794048 2.685 17.005 0.895 0 0 0
164 2 -0.9038779424788129 6.265 15.215 6.265 0 0 0
165 2 -0.9038779424794156 4.475 15.215 4.475 0 0 0
166 2 -0.9038779424792308 0.895 20.585 6.265 0 0 0
167 2 -0.9038779424793284 0.895 17.005 2.685 0 0 0
168 2 -0.9038779424795356 4.475 18.795 0.895 0 0 0
169 3 1.807755884958441 7.16 14.32 0 0 0 0
170 3 1.80775588495854 7.16 17.9 3.58 0 0 0
171 3 1.807755884958686 10.74 17.9 0 0 0 0
172 3 1.807755884958548 10.74 14.32 3.58 0 0 0
173 3 1.807755884958662 12.530000000000001 16.11 5.37 0 0 0
174 3 1.807755884958516 8.95 16.11 1.79 0 0 0
175 3 1.807755884958485 8.95 19.69 5.37 0 0 0
176 3 1.807755884958687 12.530000000000001 19.69 1.79 0 0 0
177 2 -0.9038779424790037 8.055 15.215 0.895 0 0 0
178 2 -0.9038779424794001 13.425 17.005 4.475 0 0 0
179 2 -0.9038779424793368 9.845 18.795 6.265 0 0 0
180 2 -0.9038779424792382 11.635 20.585 2.685 0 0 0
181 2 -0.9038779424794601 9.845 20.585 4.475 0 0 0
182 2 -0.9038779424791933 13.425 18.795 2.685 0 0 0
183 2 -0.9038779424791888 11.635 17.005 6.265 0 0 0
184 2 -0.9038779424793923 8.055 18.795 4.475 0 0 0
185 2 -0.9038779424791947 13.425 20.585 0.895 0 0 0
186 2 -0.9038779424793136 9.845 15.215 2.685 0 0 0
187 2 -0.9038779424793451 9.845 17.005 0.895 0 0 0
188 2 -0.9038779424790528 13.425 15.215 6.265 0 0 0
189 2 -0.9038779424793921 11.635 15.215 4.475 0 0 0
190 2 -0.9038779424790421 8.055 20.585 6.265 0 0 0
191 2 -0.903877942479077 8.055 17.005 2.685 0 0 0
192 2 -0.9038779424792779 11.635 18.795 0.895 0 0 0
193 3 1.807755884958474 14.32 14.32 0 0 0 0
194 3 1.80775588495862 14.32 17.9 3.58 0 0 0
195 3 1.807755884958635 17.9 17.9 0 0 0 0
196 3 1.807755884958566 17.9 14.32 3.58 0 0 0
197 3 1.807755884958624 19.69 16.11 5.37 0 0 0
198 3 1.807755884958701 16.11 16.11 1.79 0 0 0
199 3 1.807755884958613 16.11 19.69 5.37 0 0 0
200 3 1.807755884958615 19.69 19.69 1.79 0 0 0
201 2 -0.9038779424790383 15.215 15.215 0.895 0 0 0
202 2 -0.9038779424795567 20.585 17.005 4.475 0 0 0
203 2 -0.9038779424791833 17.005 18.795 6.265 0 0 0
204 2 -0.9038779424792642 18.795 20.585 2.685 0 0 0
205 2 -0.9038779424795604 17.005 20.585 4.475 0 0 0
206 2 -0.9038779424792606 20.585 18.795 2.685 0 0 0
207 2 -0.9038779424791805 18.795 17.005 6.265 0 0 0
208 2 -0.9038779424793856 15.215 18.795 4.475 0 0 0
209 2 -0.9038779424790816 20.585 20.585 0.895 0 0 0
210 2 -0.9038779424791424 17.005 15.215 2.685 0 0 0
211 2 -0.9038779424791903 17.005 17.005 0.895 0 0 0
212 2 -0.9038779424791249 20.585 15.215 6.265 0 0 0
213 2 -0.9038779424794054 18.795 15.215 4.475 0 0 0
214 2 -0.903877942479152 15.215 20.585 6.265 0 0 0
215 2 -0.9038779424791378 15.215 17.005 2.685 0 0 0
216 2 -0.9038779424791962 18.795 18.795 0.895 0 0 0
217 3 1.807755884958148 0 0 7.16 0 0 0
218 3 1.807755884958398 0 3.58 10.74 0 0 0
219 3 1.807755884958653 3.58 3.58 7.16 0 0 0
220 3 1.807755884958344 3.58 0 10.74 0 0 0
221 3 1.807755884958374 5.37 1.79 12.530000000000001 0 0 0
222 3 1.807755884958544 1.79 1.79 8.95 0 0 0
223 3 1.80775588495838 1.79 5.37 12.530000000000001 0 0 0
224 3 1.807755884958479 5.37 5.37 8.95 0 0 0
225 2 -0.9038779424791691 0.895 0.895 8.055 0 0 0
226 2 -0.9038779424791465 6.265 2.685 11.635 0 0 0
227 2 -0.9038779424794959 2.685 4.475 13.425 0 0 0
228 2 -0.903877942479374 4.475 6.265 9.845 0 0 0
229 2 -0.9038779424791398 2.685 6.265 11.635 0 0 0
230 2 -0.9038779424793605 6.265 4.475 9.845 0 0 0
231 2 -0.9038779424794472 4.475 2.685 13.425 0 0 0
232 2 -0.9038779424795437 0.895 4.475 11.635 0 0 0
233 2 -0.9038779424787349 6.265 6.265 8.055 0 0 0
234 2 -0.9038779424793614 2.685 0.895 9.845 0 0 0
235 2 -0.9038779424790148 2.685 2.685 8.055 0 0 0
236 2 -0.9038779424791248 6.265 0.895 13.425 0 0 0
237 2 -0.9038779424795678 4.475 0.895 11.635 0 0 0
238 2 -0.9038779424790707 0.895 6.265 13.425 0 0 0
239 2 -0.9038779424793331 0.895 2.685 9.845 0 0 0
240 2 -0.9038779424793507 4.475 4.475 8.055 0 0 0
241 3 1.807755884958424 7.16 0 7.16 0 0 0
242 3 1.807755884958625 7.16 3.58 10.74 0 0 0
243 3 1.80775588495874 10.74 3.58 7.16 0 0 0
244 3 1.807755884958657 10.74 0 10.74 0 0 0
245 3 1.807755884958303 12.530000000000001 1.79 12.530000000000001 0 0 0
246 3 1.807755884958433 8.95 1.79 8.95 0 0 0
247 3 1.807755884958444 8.95 5.37 12.530000000000001 0 0 0
248 3 1.807755884958671 12.530000000000001 5.37 8.95 0 0 0
249 2 -0.9038779424789912 8.055 0.895 8.055 0 0 0
250 2 -0.903877942479297 13.425 2.685 11.635 0 0 0
251 2 -0.9038779424794439 9.845 4.475 13.425 0 0 0
252 2 -0.9038779424793034 11.635 6.265 9.845 0 0 0
253 2 -0.9038779424792874 9.845 6.265 11.635 0 0 0
254 2 -0.9038779424793666 13.425 4.475 9.845 0 0 0
255 2 -0.9038779424793425 11.635 2.685 13.425 0 0 0
256 2 -0.9038779424794143 8.055 4.475 11.635 0 0 0
257 2 -0.9038779424788964 13.425 6.265 8.055 0 0 0
258 2 -0.9038779424793968 9.845 0.895 9.845 0 0 0
259 2 -0.9038779424791404 9.845 2.685 8.055 0 0 0
260 2 -0.903877942479356 13.425 0.895 13.425 0 0 0
261 2 -0.9038779424793278 11.635 0.895 11.635 0 0 0
262 2 -0.9038779424790072 8.055 6.265 13.425 0 0 0
263 2 -0.9038779424792995 8.055 2.685 9.845 0 0 0
264 2 -0.9038779424792132 11.635 4.475 8.055 0 0 0
265 3 1.807755884958422 14.32 0 7.16 0 0 0
266 3 1.807755884958615 14.32 3.58 10.74 0 0 0
267 3 1.807755884958614 17.9 3.58 7.16 0 0 0
268 3 1.807755884958545 17.9 0 10.74 0 0 0
269 3 1.807755884958403 19.69 1.79 12.530000000000001 0 0 0
270 3 1.807755884958393 16.11 1.79 8.95 0 0 0
271 3 1.807755884958645 16.11 5.37 12.530000000000001 0 0 0
272 3 1.807755884958667 19.69 5.37 8.95 0 0 0
273 2 -0.9038779424790724 15.215 0.895 8.055 0 0 0
274 2 -0.903877942479237 20.585 2.685 11.635 0 0 0
275 2 -0.9038779424793784 17.005 4.475 13.425 0 0 0
276 2 -0.903877942479385 18.795 6.265 9.845 0 0 0
277 2 -0.9038779424790925 17.005 6.265 11.635 0 0 0
278 2 -0.9038779424795169 20.585 4.475 9.845 0 0 0
279 2 -0.9038779424792811 18.795 2.685 13.425 0 0 0
280 2 -0.9038779424793908 15.215 4.475 11.635 0 0 0
281 2 -0.9038779424789753 20.585 6.265 8.055 0 0 0
282 2 -0.9038779424795149 17.005 0.895 9.845 0 0 0
283 2 -0.9038779424792014 17.005 2.685 8.055 0 0 0
284 2 -0.9038779424791953 20.585 0.895 13.425 0 0 0
285 2 -0.9038779424794884 18.795 0.895 11.635 0 0 0
286 2 -0.9038779424790093 15.215 6.265 13.425 0 0 0
287 2 -0.9038779424794439 15.215 2.685 9.845 0 0 0
288 2 -0.9038779424793479 18.795 4.475 8.055 0 0 0
289 3 1.80775588495854 0 7.16 7.16 0 0 0
290 3 1.807755884958638 0 10.74 10.74 0 0 0
291 3 1.807755884958754 3.58 10.74 7.16 0 0 0
292 3 1.807755884958692 3.58 7.16 10.74 0 0 0
293 3 1.807755884958421 5.37 8.95 12.530000000000001 0 0 0
294 3 1.807755884958437 1.79 8.95 8.95 0 0 0
295 3 1.807755884958355 1.79 12.530000000000001 12.530000000000001 0 0 0
296 3 1.807755884958613 5.37 12.530000000000001 8.95 0 0 0
297 2 -0.9038779424789726 0.895 8.055 8.055 0 0 0
298 2 -0.903877942479323 6.265 9.845 11.635 0 0 0
299 2 -0.9038779424793385 2.685 11.635 13.425 0 0 0
300 2 -0.9038779424793522 4.475 13.425 9.845 0 0 0
301 2 -0.9038779424792963 2.685 13.425 11.635 0 0 0
302 2 -0.9038779424793372 6.265 11.635 9.845 0 0 0
303 2 -0.9038779424794935 4.475 9.845 13.425 0 0 0
304 2 -0.9038779424792988 0.895 11.635 11.635 0 0 0
305 2 -0.9038779424789433 6.265 13.425 8.055 0 0 0
306 2 -0.9038779424792258 2.685 8.055 9.845 0 0 0
307 2 -0.9038779424791733 2.685 9.845 8.055 0 0 0
308 2 -0.9038779424790616 6.265 8.055 13.425 0 0 0
309 2 -0.9038779424793485 4.475 8.055 11.635 0 0 0
310 2 -0.9038779424792635 0.895 13.425 13.425 0 0 0
311 2 -0.9038779424793321 0.895 9.845 9.845 0 0 0
312 2 -0.9038779424793099 4.475 11.635 8.055 0 0 0
313 3 1.807755884958739 7.16 7.16 7.16 0 0 0
314 3 1.80775588495858 7.16 10.74 10.74 0 0 0
315 3 1.807755884958711 10.74 10.74 7.16 0 0 0
316 3 1.807755884958732 10.74 7.16 10.74 0 0 0
317 3 1.807755884958302 12.530000000000001 8.95 12.530000000000001 0 0 0
318 3 1.807755884958218 8.95 8.95 8.95 0 0 0
319 3 1.807755884958326 8.95 12.530000000000001 12.530000000000001 0 0 0
320 3 1.807755884958295 12.530000000000001 12.530000000000001 8.95 0 0 0
321 2 -0.9038779424788542 8.055 8.055 8.055 0 0 0
322 2 -0.9038779424794182 13.425 9.845 11.635 0 0 0
323 2 -0.9038779424793999 9.845 11.635 13.425 0 0 0
324 2 -0.903877942479443 11.635 13.425 9.845 0 0 0
325 2 -0.9038779424793669 9.845 13.425 11.635 0 0 0
326 2 -0.9038779424794626 13.425 11.635 9.845 0 0 0
327 2 -0.9038779424794153 11.635 9.845 13.425 0 0 0
328 2 -0.9038779424793422 8.055 11.635 11.635 0 0 0
329 2 -0.903877942479153 13.425 13.425 8.055 0 0 0
330 2 -0.9038779424793564 9.845 8.055 9.845 0 0 0
331 2 -0.9038779424792973 9.845 9.845 8.055 0 0 0
332 2 -0.9038779424792157 13.425 8.055 13.425 0 0 0
333 2 -0.9038779424792485 11.635 8.055 11.635 0 0 0
334 2 -0.9038779424792189 8.055 13.425 13.425 0 0 0
335 2 -0.9038779424793696 8.055 9.845 9.845 0 0 0
336 2 -0.903877942479307 11.635 11.635 8.055 0 0 0
337 3 1.8077558849588 14.32 7.16 7.16 0 0 0
338 3 1.807755884958572 14.32 10.74 10.74 0 0 0
339 3 1.807755884958795 17.9 10.74 7.16 0 0 0
340 3 1.807755884958739 17.9 7.16 10.74 0 0 0
341 3 1.807755884958453 19.69 8.95 12.530000000000001 0 0 0
342 3 1.807755884958396 16.11 8.95 8.95 0 0 0
343 3 1.807755884958496 16.11 12.530000000000001 12.530000000000001 0 0 0
344 3 1.807755884958321 19.69 12.530000000000001 8.95 0 0 0
345 2 -0.903877942478905 15.215 8.055 8.055 0 0 0
346 2 -0.9038779424792776 20.585 9.845 11.635 0 0 0
347 2 -0.903877942479246 17.005 11.635 13.425 0 0 0
348 2 -0.9038779424793987 18.795 13.425 9.845 0 0 0
349 2 -0.9038779424792169 17.005 13.425 11.635 0 0 0
350 2 -0.9038779424794132 20.585 11.635 9.845 0 0 0
351 2 -0.903877942479304 18.795 9.845 13.425 0 0 0
352 2 -0.9038779424793467 15.215 11.635 11.635 0 0 0
353 2 -0.9038779424791888 20.585 13.425 8.055 0 0 0
354 2 -0.9038779424792989 17.005 8.055 9.845 0 0 0
355 2 -0.9038779424792861 17.005 9.845 8.055 0 0 0
356 2 -0.9038779424791343 20.585 8.055 13.425 0 0 0
357 2 -0.9038779424792618 18.795 8.055 11.635 0 0 0
358 2 -0.9038779424791067 15.215 13.425 13.425 0 0 0
359 2 -0.9038779424794712 15.215 9.845 9.845 0 0 0
360 2 -0.9038779424792752 18.795 11.635 8.055 0 0 0
361 3 1.807755884958422 0 14.32 7.16 0 0 0
362 3 1.807755884958687 0 17.9 10.74 0 0 0
363 3 1.807755884958781 3.58 17.9 7.16 0 0 0
364 3 1.807755884958701 3.58 14.32 10.74 0 0 0
365 3 1.807755884958562 5.37 16.11 12.530000000000001 0 0 0
366 3 1.807755884958469 1.79 16.11 8.95 0 0 0
367 3 1.807755884958386 1.79 19.69 12.530000000000001 0 0 0
368 3 1.807755884958596 5.37 19.69 8.95 0 0 0
369 2 -0.9038779424790536 0.895 15.215 8.055 0 0 0
370 2 -0.9038779424791787 6.265 17.005 11.635 0 0 0
371 2 -0.9038779424792891 2.685 18.795 13.425 0 0 0
372 2 -0.9038779424794909 4.475 20.585 9.845 0 0 0
373 2 -0.9038779424792881 2.685 20.585 11.635 0 0 0
374 2 -0.9038779424793456 6.265 18.795 9.845 0 0 0
375 2 -0.90387794247932 4.475 17.005 13.425 0 0 0
376 2 -0.9038779424793766 0.895 18.795 11.635 0 0 0
377 2 -0.903877942479021 6.265 20.585 8.055 0 0 0
378 2 -0.9038779424794079 2.685 15.215 9.845 0 0 0
379 2 -0.9038779424791171 2.685 17.005 8.055 0 0 0
380 2 -0.9038779424790641 6.265 15.215 13.425 0 0 0
381 2 -0.9038779424793738 4.475 15.215 11.635 0 0 0
382 2 -0.903877942479234 0.895 20.585 13.425 0 0 0
383 2 -0.9038779424793999 0.895 17.005 9.845 0 0 0
384 2 -0.9038779424792397 4.475 18.795 8.055 0 0 0
385 3 1.807755884958753 7.16 14.32 7.16 0 0 0
386 3 1.807755884958716 7.16 17.9 10.74 0 0 0
387 3 1.807755884958739 10.74 17.9 7.16 0 0 0
388 3 1.80775588495866 10.74 14.32 10.74 0 0 0
389 3 1.80775588495848 12.530000000000001 16.11 12.530000000000001 0 0 0
390 3 1.807755884958405 8.95 16.11 8.95 0 0 0
391 3 1.807755884958399 8.95 19.69 12.530000000000001 0 0 0
392 3 1.807755884958416 12.530000000000001 19.69 8.95 0 0 0
393 2 -0.9038779424789556 8.055 15.215 8.055 0 0 0
394 2 -0.9038779424792847 13.425 17.005 11.635 0 0 0
395 2 -0.9038779424793753 9.845 18.795 13.425 0 0 0
396 2 -0.9038779424793633 11.635 20.585 9.845 0 0 0
397 2 -0.9038779424792981 9.845 20.585 11.635 0 0 0
398 2 -0.9038779424793262 13.425 18.795 9.845 0 0 0
399 2 -0.9038779424792127 11.635 17.005 13.425 0 0 0
400 2 -0.903877942479246 8.055 18.795 11.635 0 0 0
401 2 -0.903877942479155 13.425 20.585 8.055 0 0 0
402 2 -0.9038779424795423 9.845 15.215 9.845 0 0 0
403 2 -0.9038779424792869 9.845 17.005 8.055 0 0 0
404 2 -0.9038779424791443 13.425 15.215 13.425 0 0 0
405 2 -0.9038779424793393 11.635 15.215 11.635 0 0 0
406 2 -0.90387794247919 8.055 20.585 13.425 0 0 0
407 2 -0.9038779424793372 8.055 17.005 9.845 0 0 0
408 2 -0.9038779424792266 11.635 18.795 8.055 0 0 0
409 3 1.807755884958789 14.32 14.32 7.16 0 0 0
410 3 1.807755884958732 14.32 17.9 10.74 0 0 0
411 3 1.807755884958647 17.9 17.9 7.16 0 0 0
412 3 1.807755884958744 17.9 14.32 10.74 0 0 0
413 3 1.807755884958476 19.69 16.11 12.530000000000001 0 0 0
414 3 1.807755884958431 16.11 16.11 8.95 0 0 0
415 3 1.807755884958449 16.11 19.69 12.530000000000001 0 0 0
416 3 1.807755884958407 19.69 19.69 8.95 0 0 0
417 2 -0.9038779424790124 15.215 15.215 8.055 0 0 0
418 2 -0.9038779424793875 20.585 17.005 11.635 0 0 0
419 2 -0.9038779424793109 17.005 18.795 13.425 0 0 0
420 2 -0.9038779424793785 18.795 20.585 9.845 0 0 0
421 2 -0.9038779424794172 17.005 20.585 11.635 0 0 0
422 2 -0.9038779424793805 20.585 18.795 9.845 0 0 0
423 2 -0.9038779424792982 18.795 17.005 13.425 0 0 0
424 2 -0.9038779424792132 15.215 18.795 11.635 0 0 0
425 2 -0.9038779424791586 20.585 20.585 8.055 0 0 0
426 2 -0.9038779424793182 17.005 15.215 9.845 0 0 0
427 2 -0.9038779424791259 17.005 17.005 8.055 0 0 0
428 2 -0.9038779424791754 20.585 15.215 13.425 0 0 0
429 2 -0.9038779424792179 18.795 15.215 11.635 0 0 0
430 2 -0.9038779424791822 15.215 20.585 13.425 0 0 0
431 2 -0.903877942479288 15.215 17.005 9.845 0 0 0
432 2 -0.9038779424792078 18.795 18.795 8.055 0 0 0
433 3 1.807755884958286 0 0 14.32 0 0 0
434 3 1.80775588495851 0 3.58 17.9 0 0 0
435 3 1.807755884958564 3.58 3.58 14.32 0 0 0
436 3 1.807755884958533 3.58 0 17.9 0 0 0
437 3 1.807755884958398 5.37 1.79 19.69 0 0 0
438 3 1.807755884958575 1.79 1.79 16.11 0 0 0
439 3 1.807755884958352 1.79 5.37 19.69 0 0 0
440 3 1.807755884958455 5.37 5.37 16.11 0 0 0
441 2 -0.9038779424791158 0.895 0.895 15.215 0 0 0
442 2 -0.903877942479057 6.265 2.685 18.795 0 0 0
443 2 -0.9038779424793791 2.685 4.475 20.585 0 0 0
444 2 -0.9038779424792059 4.475 6.265 17.005 0 0 0
445 2 -0.9038779424791008 2.685 6.265 18.795 0 0 0
446 2 -0.9038779424792096 6.265 4.475 17.005 0 0 0
447 2 -0.9038779424793526 4.475 2.685 20.585 0 0 0
448 2 -0.9038779424794213 0.895 4.475 18.795 0 0 0
449 2 -0.9038779424789385 6.265 6.265 15.215 0 0 0
450 2 -0.9038779424792579 2.685 0.895 17.005 0 0 0
451 2 -0.9038779424791666 2.685 2.685 15.215 0 0 0
452 2 -0.9038779424791223 6.265 0.895 20.585 0 0 0
453 2 -0.9038779424793507 4.475 0.895 18.795 0 0 0
454 2 -0.9038779424792135 0.895 6.265 20.585 0 0 0
455 2 -0.9038779424792258 0.895 2.685 17.005 0 0 0
456 2 -0.9038779424793739 4.475 4.475 15.215 0 0 0
457 3 1.807755884958398 7.16 0 14.32 0 0 0
458 3 1.807755884958498 7.16 3.58 17.9 0 0 0
459 3 1.807755884958715 10.74 3.58 14.32 0 0 0
460 3 1.807755884958645 10.74 0 17.9 0 0 0
461 3 1.80775588495839 12.530000000000001 1.79 19.69 0 0 0
462 3 1.807755884958449 8.95 1.79 16.11 0 0 0
463 3 1.807755884958455 8.95 5.37 19.69 0 0 0
464 3 1.807755884958459 12.530000000000001 5.37 16.11 0 0 0
465 2 -0.9038779424790553 8.055 0.895 15.215 0 0 0
466 2 -0.9038779424792895 13.425 2.685 18.795 0 0 0
467 2 -0.9038779424794622 9.845 4.475 20.585 0 0 0
468 2 -0.9038779424791663 11.635 6.265 17.005 0 0 0
469 2 -0.9038779424791604 9.845 6.265 18.795 0 0 0
470 2 -0.9038779424793184 13.425 4.475 17.005 0 0 0
471 2 -0.9038779424792813 11.635 2.685 20.585 0 0 0
472 2 -0.9038779424793124 8.055 4.475 18.795 0 0 0
473 2 -0.9038779424791128 13.425 6.265 15.215 0 0 0
474 2 -0.903877942479314 9.845 0.895 17.005 0 0 0
475 2 -0.9038779424793217 9.845 2.685 15.215 0 0 0
476 2 -0.9038779424791352 13.425 0.895 20.585 0 0 0
477 2 -0.9038779424793071 11.635 0.895 18.795 0 0 0
478 2 -0.9038779424790212 8.055 6.265 20.585 0 0 0
479 2 -0.9038779424791311 8.055 2.685 17.005 0 0 0
480 2 -0.9038779424793538 11.635 4.475 15.215 0 0 0
481 3 1.807755884958338 14.32 0 14.32 0 0 0
482 3 1.807755884958534 14.32 3.58 17.9 0 0 0
483 3 1.807755884958507 17.9 3.58 14.32 0 0 0
484 3 1.80775588495862 17.9 0 17.9 0 0 0
485 3 1.807755884958552 19.69 1.79 19.69 0 0 0
486 3 1.807755884958421 16.11 1.79 16.11 0 0 0
487 3 1.807755884958599 16.11 5.37 19.69 0 0 0
488 3 1.807755884958585 19.69 5.37 16.11 0 0 0
489 2 -0.9038779424792522 15.215 0.895 15.215 0 0 0
490 2 -0.9038779424792425 20.585 2.685 18.795 0 0 0
491 2 -0.903877942479473 17.005 4.475 20.585 0 0 0
492 2 -0.903877942479254 18.795 6.265 17.005 0 0 0
493 2 -0.9038779424791382 17.005 6.265 18.795 0 0 0
494 2 -0.9038779424794121 20.585 4.475 17.005 0 0 0
495 2 -0.903877942479385 18.795 2.685 20.585 0 0 0
496 2 -0.9038779424794018 15.215 4.475 18.795 0 0 0
497 2 -0.903877942479112 20.585 6.265 15.215 0 0 0
498 2 -0.9038779424793135 17.005 0.895 17.005 0 0 0
499 2 -0.9038779424794121 17.005 2.685 15.215 0 0 0
500 2 -0.9038779424790597 20.585 0.895 20.585 0 0 0
501 2 -0.9038779424792684 18.795 0.895 18.795 0 0 0
502 2 -0.90387794247915 15.215 6.265 20.585 0 0 0
503 2 -0.9038779424792677 15.215 2.685 17.005 0 0 0
504 2 -0.9038779424794655 18.795 4.475 15.215 0 0 0
505 3 1.807755884958491 0 7.16 14.32 0 0 0
506 3 1.807755884958666 0 10.74 17.9 0 0 0
507 3 1.807755884958705 3.58 10.74 14.32 0 0 0
508 3 1.807755884958557 3.58 7.16 17.9 0 0 0
509 3 1.807755884958575 5.37 8.95 19.69 0 0 0
510 3 1.807755884958449 1.79 8.95 16.11 0 0 0
511 3 1.807755884958405 1.79 12.530000000000001 19.69 0 0 0
512 3 1.807755884958539 5.37 12.530000000000001 16.11 0 0 0
513 2 -0.9038779424790715 0.895 8.055 15.215 0 0 0
514 2 -0.9038779424791256 6.265 9.845 18.795 0 0 0
515 2 -0.9038779424793257 2.685 11.635 20.585 0 0 0
516 2 -0.9038779424792573 4.475 13.425 17.005 0 0 0
517 2 -0.9038779424793054 2.685 13.425 18.795 0 0 0
518 2 -0.903877942479153 6.265 11.635 17.005 0 0 0
519 2 -0.9038779424793966 4.475 9.845 20.585 0 0 0
520 2 -0.9038779424793342 0.895 11.635 18.795 0 0 0
521 2 -0.9038779424791125 6.265 13.425 15.215 0 0 0
522 2 -0.9038779424791534 2.685 8.055 17.005 0 0 0
523 2 -0.9038779424793668 2.685 9.845 15.215 0 0 0
524 2 -0.9038779424789676 6.265 8.055 20.585 0 0 0
525 2 -0.9038779424792617 4.475 8.055 18.795 0 0 0
526 2 -0.903877942479227 0.895 13.425 20.585 0 0 0
527 2 -0.9038779424792881 0.895 9.845 17.005 0 0 0
528 2 -0.9038779424793723 4.475 11.635 15.215 0 0 0
529 3 1.807755884958594 7.16 7.16 14.32 0 0 0
530 3 1.807755884958689 7.16 10.74 17.9 0 0 0
531 3 1.807755884958793 10.74 10.74 14.32 0 0 0
532 3 1.807755884958774 10.74 7.16 17.9 0 0 0
533 3 1.807755884958424 12.530000000000001 8.95 19.69 0 0 0
534 3 1.807755884958278 8.95 8.95 16.11 0 0 0
535 3 1.807755884958369 8.95 12.530000000000001 19.69 0 0 0
536 3 1.807755884958225 12.530000000000001 12.530000000000001 16.11 0 0 0
537 2 -0.9038779424790757 8.055 8.055 15.215 0 0 0
538 2 -0.9038779424792677 13.425 9.845 18.795 0 0 0
539 2 -0.903877942479322 9.845 11.635 20.585 0 0 0
540 2 -0.9038779424792898 11.635 13.425 17.005 0 0 0
541 2 -0.9038779424792641 9.845 13.425 18.795 0 0 0
542 2 -0.9038779424792547 13.425 11.635 17.005 0 0 0
543 2 -0.9038779424793439 11.635 9.845 20.585 0 0 0
544 2 -0.9038779424792548 8.055 11.635 18.795 0 0 0
545 2 -0.9038779424792542 13.425 13.425 15.215 0 0 0
546 2 -0.9038779424792293 9.845 8.055 17.005 0 0 0
547 2 -0.9038779424794465 9.845 9.845 15.215 0 0 0
548 2 -0.9038779424791574 13.425 8.055 20.585 0 0 0
549 2 -0.9038779424792023 11.635 8.055 18.795 0 0 0
550 2 -0.9038779424791512 8.055 13.425 20.585 0 0 0
551 2 -0.90387794247937 8.055 9.845 17.005 0 0 0
552 2 -0.9038779424793745 11.635 11.635 15.215 0 0 0
553 3 1.807755884958566 14.32 7.16 14.32 0 0 0
554 3 1.807755884958714 14.32 10.74 17.9 0 0 0
555 3 1.807755884958785 17.9 10.74 14.32 0 0 0
556 3 1.807755884958622 17.9 7.16 17.9 0 0 0
557 3 1.807755884958443 19.69 8.95 19.69 0 0 0
558 3 1.807755884958443 16.11 8.95 16.11 0 0 0
559 3 1.807755884958501 16.11 12.530000000000001 19.69 0 0 0
560 3 1.807755884958431 19.69 12.530000000000001 16.11 0 0 0
561 2 -0.9038779424791107 15.215 8.055 15.215 0 0 0
562 2 -0.9038779424792597 20.585 9.845 18.795 0 0 0
563 2 -0.9038779424793261 17.005 11.635 20.585 0 0 0
564 2 -0.9038779424792105 18.795 13.425 17.005 0 0 0
565 2 -0.9038779424791369 17.005 13.425 18.795 0 0 0
566 2 -0.9038779424792537 20.585 11.635 17.005 0 0 0
567 2 -0.9038779424793218 18.795 9.845 20.585 0 0 0
568 2 -0.9038779424792474 15.215 11.635 18.795 0 0 0
569 2 -0.9038779424791902 20.585 13.425 15.215 0 0 0
570 2 -0.9038779424793044 17.005 8.055 17.005 0 0 0
571 2 -0.9038779424793838 17.005 9.845 15.215 0 0 0
572 2 -0.9038779424791945 20.585 8.055 20.585 0 0 0
573 2 -0.9038779424792739 18.795 8.055 18.795 0 0 0
574 2 -0.9038779424791422 15.215 13.425 20.585 0 0 0
575 2 -0.9038779424793486 15.215 9.845 17.005 0 0 0
576 2 -0.9038779424792988 18.795 11.635 15.215 0 0 0
577 3 1.807755884958411 0 14.32 14.32 0 0 0
578 3 1.807755884958675 0 17.9 17.9 0 0 0
579 3 1.807755884958618 3.58 17.9 14.32 0 0 0
580 3 1.807755884958565 3.58 14.32 17.9 0 0 0
581 3 1.807755884958552 5.37 16.11 19.69 0 0 0
582 3 1.807755884958468 1.79 16.11 16.11 0 0 0
583 3 1.807755884958615 1.79 19.69 19.69 0 0 0
584 3 1.807755884958528 5.37 19.69 16.11 0 0 0
585 2 -0.9038779424791978 0.895 15.215 15.215 0 0 0
586 2 -0.9038779424791605 6.265 17.005 18.795 0 0 0
587 2 -0.903877942479378 2.685 18.795 20.585 0 0 0
588 2 -0.9038779424794097 4.475 20.585 17.005 0 0 0
589 2 -0.9038779424791863 2.685 20.585 18.795 0 0 0
590 2 -0.9038779424792656 6.265 18.795 17.005 0 0 0
591 2 -0.9038779424793549 4.475 17.005 20.585 0 0 0
592 2 -0.9038779424792137 0.895 18.795 18.795 0 0 0
593 2 -0.903877942479109 6.265 20.585 15.215 0 0 0