LAMMPS data file via write_data, version 23 Jun 2022, timestep = 0

3000 atoms
3 atom types

0 35.8 xlo xhi
0 35.8 ylo yhi
0 35.8 zlo zhi

Masses

1 1.00784
2 15.9991
3 28.0855

Atoms # charge

1 3 1.805264081510642 0 0 0 0 0 0
3 3 1.805264081510537 3.58 3.58 0 0 0 0
6 3 1.805264081510173 1.79 1.79 1.79 0 0 0
9 2 -0.9026320407552728 0.895 0.895 0.895 0 0 0
18 2 -0.9026320407554429 2.685 0.895 2.685 0 0 0
19 2 -0.9026320407553872 2.685 2.685 0.895 0 0 0
23 2 -0.9026320407554107 0.895 2.685 2.685 0 0 0
24 2 -0.9026320407553964 4.475 4.475 0.895 0 0 0
2 3 1.805264081510427 0 3.58 3.58 0 0 0
4 3 1.805264081510415 3.58 0 3.58 0 0 0
16 2 -0.9026320407554849 0.895 4.475 4.475 0 0 0
21 2 -0.9026320407554418 4.475 0.895 4.475 0 0 0
14 2 -0.902632040755342 6.265 4.475 2.685 0 0 0
25 3 1.805264081510657 7.16 0 0 0 0 0
30 3 1.80526408151061 8.95 1.79 1.79 0 0 0
33 2 -0.9026320407553056 8.055 0.895 0.895 0 0 0
42 2 -0.902632040755322 9.845 0.895 2.685 0 0 0
43 2 -0.9026320407552515 9.845 2.685 0.895 0 0 0
47 2 -0.9026320407553535 8.055 2.685 2.685 0 0 0
5 3 1.805264081510257 5.37 1.79 5.37 0 0 0
10 2 -0.9026320407553998 6.265 2.685 4.475 0 0 0
26 3 1.805264081510589 7.16 3.58 3.58 0 0 0
40 2 -0.902632040755316 8.055 4.475 4.475 0 0 0
27 3 1.805264081510774 10.74 3.58 0 0 0 0
38 2 -0.9026320407553168 13.425 4.475 2.685 0 0 0
48 2 -0.9026320407552867 11.635 4.475 0.895 0 0 0
49 3 1.805264081510497 14.32 0 0 0 0 0
57 2 -0.9026320407553639 15.215 0.895 0.895 0 0 0
71 2 -0.9026320407553173 15.215 2.685 2.685 0 0 0
28 3 1.805264081510707 10.74 0 3.58 0 0 0
29 3 1.805264081510549 12.530000000000001 1.79 5.37 0 0 0
34 2 -0.9026320407554166 13.425 2.685 4.475 0 0 0
45 2 -0.9026320407553651 11.635 0.895 4.475 0 0 0
50 3 1.805264081510795 14.32 3.58 3.58 0 0 0
64 2 -0.9026320407553102 15.215 4.475 4.475 0 0 0
51 3 1.805264081510604 17.9 3.58 0 0 0 0
54 3 1.805264081510759 16.11 1.79 1.79 0 0 0
66 2 -0.902632040755367 17.005 0.895 2.685 0 0 0
67 2 -0.902632040755363 17.005 2.685 0.895 0 0 0
72 2 -0.9026320407553421 18.795 4.475 0.895 0 0 0
52 3 1.805264081510425 17.9 0 3.58 0 0 0
53 3 1.805264081510662 19.69 1.79 5.37 0 0 0
69 2 -0.9026320407553894 18.795 0.895 4.475 0 0 0
62 2 -0.9026320407553525 20.585 4.475 2.685 0 0 0
73 3 1.805264081510832 21.48 0 0 0 0 0
75 3 1.805264081510599 25.060000000000002 3.58 0 0 0 0
78 3 1.805264081510557 23.27 1.79 1.79 0 0 0
81 2 -0.9026320407552979 22.375 0.895 0.895 0 0 0
90 2 -0.9026320407553649 24.165 0.895 2.685 0 0 0
91 2 -0.9026320407553868 24.165 2.685 0.895 0 0 0
95 2 -0.9026320407553785 22.375 2.685 2.685 0 0 0
58 2 -0.9026320407553701 20.585 2.685 4.475 0 0 0
74 3 1.805264081510657 21.48 3.58 3.58 0 0 0
76 3 1.805264081510474 25.060000000000002 0 3.58 0 0 0
88 2 -0.9026320407552947 22.375 4.475 4.475 0 0 0
86 2 -0.9026320407553039 27.745 4.475 2.685 0 0 0
96 2 -0.902632040755304 25.955 4.475 0.895 0 0 0
97 3 1.805264081510565 28.64 0 0 0 0 0
102 3 1.805264081510779 30.43 1.79 1.79 0 0 0
105 2 -0.9026320407554008 29.535 0.895 0.895 0 0 0
119 2 -0.9026320407551157 29.535 2.685 2.685 0 0 0
77 3 1.805264081510676 26.85 1.79 5.37 0 0 0
82 2 -0.9026320407553147 27.745 2.685 4.475 0 0 0
93 2 -0.902632040755471 25.955 0.895 4.475 0 0 0
98 3 1.80526408151095 28.64 3.58 3.58 0 0 0
112 2 -0.9026320407552108 29.535 4.475 4.475 0 0 0
99 3 1.805264081510536 32.22 3.58 0 0 0 0
110 2 -0.9026320407554411 34.905 4.475 2.685 0 0 0
114 2 -0.9026320407552848 31.325 0.895 2.685 0 0 0
115 2 -0.9026320407552532 31.325 2.685 0.895 0 0 0
120 2 -0.9026320407554975 33.115 4.475 0.895 0 0 0
100 3 1.805264081510441 32.22 0 3.58 0 0 0
101 3 1.805264081510511 34.01 1.79 5.37 0 0 0
106 2 -0.9026320407554657 34.905 2.685 4.475 0 0 0
117 2 -0.9026320407554517 33.115 0.895 4.475 0 0 0
12 2 -0.9026320407552497 4.475 6.265 2.685 0 0 0
121 3 1.805264081510735 0 7.16 0 0 0 0
126 3 1.805264081510695 1.79 8.95 1.79 0 0 0
129 2 -0.9026320407552582 0.895 8.055 0.895 0 0 0
138 2 -0.9026320407553521 2.685 8.055 2.685 0 0 0
139 2 -0.9026320407552575 2.685 9.845 0.895 0 0 0
143 2 -0.9026320407552396 0.895 9.845 2.685 0 0 0
7 3 1.805264081510199 1.79 5.37 5.37 0 0 0
13 2 -0.9026320407553803 2.685 6.265 4.475 0 0 0
124 3 1.805264081510666 3.58 7.16 3.58 0 0 0
141 2 -0.9026320407553048 4.475 8.055 4.475 0 0 0
8 3 1.805264081510319 5.37 5.37 1.79 0 0 0
17 2 -0.9026320407553364 6.265 6.265 0.895 0 0 0
145 3 1.805264081510915 7.16 7.16 0 0 0 0
150 3 1.805264081510834 8.95 8.95 1.79 0 0 0
153 2 -0.9026320407552585 8.055 8.055 0.895 0 0 0
162 2 -0.902632040755178 9.845 8.055 2.685 0 0 0
163 2 -0.9026320407552004 9.845 9.845 0.895 0 0 0
167 2 -0.9026320407552132 8.055 9.845 2.685 0 0 0
125 3 1.805264081510354 5.37 8.95 5.37 0 0 0
130 2 -0.9026320407553158 6.265 9.845 4.475 0 0 0
31 3 1.805264081510453 8.95 5.37 5.37 0 0 0
37 2 -0.9026320407552371 9.845 6.265 4.475 0 0 0
32 3 1.805264081510617 12.530000000000001 5.37 1.79 0 0 0
36 2 -0.9026320407551474 11.635 6.265 2.685 0 0 0
41 2 -0.9026320407553937 13.425 6.265 0.895 0 0 0
169 3 1.805264081510724 14.32 7.16 0 0 0 0
177 2 -0.9026320407553481 15.215 8.055 0.895 0 0 0
191 2 -0.902632040755267 15.215 9.845 2.685 0 0 0
148 3 1.805264081510884 10.74 7.16 3.58 0 0 0
149 3 1.805264081510445 12.530000000000001 8.95 5.37 0 0 0
154 2 -0.9026320407553372 13.425 9.845 4.475 0 0 0
165 2 -0.9026320407552328 11.635 8.055 4.475 0 0 0
56 3 1.80526408151068 19.69 5.37 1.79 0 0 0
60 2 -0.9026320407553566 18.795 6.265 2.685 0 0 0
174 3 1.805264081510622 16.11 8.95 1.79 0 0 0
186 2 -0.9026320407552938 17.005 8.055 2.685 0 0 0
187 2 -0.9026320407553671 17.005 9.845 0.895 0 0 0
55 3 1.805264081510507 16.11 5.37 5.37 0 0 0
61 2 -0.9026320407554296 17.005 6.265 4.475 0 0 0
172 3 1.805264081510697 17.9 7.16 3.58 0 0 0
173 3 1.805264081510668 19.69 8.95 5.37 0 0 0
189 2 -0.9026320407553591 18.795 8.055 4.475 0 0 0
65 2 -0.9026320407552003 20.585 6.265 0.895 0 0 0
193 3 1.805264081510922 21.48 7.16 0 0 0 0
198 3 1.805264081510844 23.27 8.95 1.79 0 0 0
201 2 -0.9026320407552383 22.375 8.055 0.895 0 0 0
210 2 -0.9026320407552023 24.165 8.055 2.685 0 0 0
211 2 -0.9026320407552678 24.165 9.845 0.895 0 0 0
215 2 -0.9026320407551562 22.375 9.845 2.685 0 0 0
178 2 -0.9026320407552757 20.585 9.845 4.475 0 0 0
79 3 1.805264081510589 23.27 5.37 5.37 0 0 0
85 2 -0.9026320407554225 24.165 6.265 4.475 0 0 0
196 3 1.805264081510822 25.060000000000002 7.16 3.58 0 0 0
80 3 1.805264081510797 26.85 5.37 1.79 0 0 0
84 2 -0.9026320407553092 25.955 6.265 2.685 0 0 0
89 2 -0.9026320407551481 27.745 6.265 0.895 0 0 0
217 3 1.805264081510902 28.64 7.16 0 0 0 0
222 3 1.805264081510844 30.43 8.95 1.79 0 0 0
225 2 -0.9026320407552955 29.535 8.055 0.895 0 0 0
239 2 -0.9026320407551072 29.535 9.845 2.685 0 0 0
197 3 1.805264081510688 26.85 8.95 5.37 0 0 0
202 2 -0.9026320407552759 27.745 9.845 4.475 0 0 0
213 2 -0.9026320407554079 25.955 8.055 4.475 0 0 0
103 3 1.805264081510568 30.43 5.37 5.37 0 0 0
104 3 1.805264081510553 34.01 5.37 1.79 0 0 0
108 2 -0.902632040755466 33.115 6.265 2.685 0 0 0
113 2 -0.9026320407554188 34.905 6.265 0.895 0 0 0
234 2 -0.9026320407552735 31.325 8.055 2.685 0 0 0
235 2 -0.9026320407552891 31.325 9.845 0.895 0 0 0
109 2 -0.9026320407553253 31.325 6.265 4.475 0 0 0
220 3 1.805264081510797 32.22 7.16 3.58 0 0 0
221 3 1.805264081510501 34.01 8.95 5.37 0 0 0
226 2 -0.9026320407554028 34.905 9.845 4.475 0 0 0
237 2 -0.9026320407554949 33.115 8.055 4.475 0 0 0
123 3 1.805264081510863 3.58 10.74 0 0 0 0
132 2 -0.9026320407552925 4.475 13.425 2.685 0 0 0
144 2 -0.9026320407553101 4.475 11.635 0.895 0 0 0
241 3 1.805264081510583 0 14.32 0 0 0 0
249 2 -0.9026320407552678 0.895 15.215 0.895 0 0 0
258 2 -0.9026320407553354 2.685 15.215 2.685 0 0 0
122 3 1.805264081510743 0 10.74 3.58 0 0 0
127 3 1.805264081510555 1.79 12.530000000000001 5.37 0 0 0
133 2 -0.9026320407554 2.685 13.425 4.475 0 0 0
136 2 -0.9026320407553682 0.895 11.635 4.475 0 0 0
244 3 1.805264081510767 3.58 14.32 3.58 0 0 0
261 2 -0.9026320407554056 4.475 15.215 4.475 0 0 0
128 3 1.805264081510556 5.37 12.530000000000001 1.79 0 0 0
134 2 -0.9026320407552068 6.265 11.635 2.685 0 0 0
137 2 -0.902632040755417 6.265 13.425 0.895 0 0 0
265 3 1.805264081510725 7.16 14.32 0 0 0 0
273 2 -0.9026320407553117 8.055 15.215 0.895 0 0 0
282 2 -0.9026320407551222 9.845 15.215 2.685 0 0 0
146 3 1.805264081510835 7.16 10.74 3.58 0 0 0
151 3 1.805264081510487 8.95 12.530000000000001 5.37 0 0 0
157 2 -0.9026320407552197 9.845 13.425 4.475 0 0 0
160 2 -0.9026320407553421 8.055 11.635 4.475 0 0 0
147 3 1.805264081511055 10.74 10.74 0 0 0 0
152 3 1.805264081510846 12.530000000000001 12.530000000000001 1.79 0 0 0
156 2 -0.9026320407551391 11.635 13.425 2.685 0 0 0
158 2 -0.9026320407552663 13.425 11.635 2.685 0 0 0
161 2 -0.9026320407553524 13.425 13.425 0.895 0 0 0
168 2 -0.9026320407551515 11.635 11.635 0.895 0 0 0
289 3 1.805264081510671 14.32 14.32 0 0 0 0
297 2 -0.9026320407552624 15.215 15.215 0.895 0 0 0
268 3 1.805264081511032 10.74 14.32 3.58 0 0 0
285 2 -0.9026320407552496 11.635 15.215 4.475 0 0 0
170 3 1.805264081510835 14.32 10.74 3.58 0 0 0
184 2 -0.9026320407554163 15.215 11.635 4.475 0 0 0
171 3 1.805264081510788 17.9 10.74 0 0 0 0
176 3 1.805264081510705 19.69 12.530000000000001 1.79 0 0 0
180 2 -0.9026320407553103 18.795 13.425 2.685 0 0 0
192 2 -0.9026320407553717 18.795 11.635 0.895 0 0 0
306 2 -0.902632040755217 17.005 15.215 2.685 0 0 0
175 3 1.805264081510398 16.11 12.530000000000001 5.37 0 0 0
181 2 -0.9026320407554459 17.005 13.425 4.475 0 0 0
292 3 1.80526408151069 17.9 14.32 3.58 0 0 0
309 2 -0.9026320407553969 18.795 15.215 4.475 0 0 0
182 2 -0.9026320407552831 20.585 11.635 2.685 0 0 0
185 2 -0.9026320407553871 20.585 13.425 0.895 0 0 0
195 3 1.805264081510834 25.060000000000002 10.74 0 0 0 0
313 3 1.805264081510695 21.48 14.32 0 0 0 0
321 2 -0.9026320407552826 22.375 15.215 0.895 0 0 0
330 2 -0.9026320407552919 24.165 15.215 2.685 0 0 0
194 3 1.805264081510899 21.48 10.74 3.58 0 0 0
199 3 1.805264081510646 23.27 12.530000000000001 5.37 0 0 0
205 2 -0.90263204075531 24.165 13.425 4.475 0 0 0
208 2 -0.9026320407552598 22.375 11.635 4.475 0 0 0
316 3 1.805264081510725 25.060000000000002 14.32 3.58 0 0 0
200 3 1.805264081510795 26.85 12.530000000000001 1.79 0 0 0
204 2 -0.902632040755425 25.955 13.425 2.685 0 0 0
206 2 -0.9026320407551994 27.745 11.635 2.685 0 0 0
209 2 -0.9026320407553236 27.745 13.425 0.895 0 0 0
216 2 -0.9026320407552935 25.955 11.635 0.895 0 0 0
337 3 1.805264081510565 28.64 14.32 0 0 0 0
345 2 -0.9026320407553312 29.535 15.215 0.895 0 0 0
333 2 -0.9026320407554548 25.955 15.215 4.475 0 0 0
218 3 1.80526408151095 28.64 10.74 3.58 0 0 0
223 3 1.805264081510431 30.43 12.530000000000001 5.37 0 0 0
232 2 -0.9026320407552741 29.535 11.635 4.475 0 0 0
219 3 1.805264081510638 32.22 10.74 0 0 0 0
224 3 1.805264081510622 34.01 12.530000000000001 1.79 0 0 0
228 2 -0.9026320407554528 33.115 13.425 2.685 0 0 0
230 2 -0.9026320407553514 34.905 11.635 2.685 0 0 0
233 2 -0.9026320407554876 34.905 13.425 0.895 0 0 0
240 2 -0.9026320407554199 33.115 11.635 0.895 0 0 0
354 2 -0.9026320407552458 31.325 15.215 2.685 0 0 0
229 2 -0.9026320407554019 31.325 13.425 4.475 0 0 0
340 3 1.805264081510577 32.22 14.32 3.58 0 0 0
357 2 -0.9026320407554617 33.115 15.215 4.475 0 0 0
243 3 1.805264081510646 3.58 17.9 0 0 0 0
246 3 1.805264081510768 1.79 16.11 1.79 0 0 0
259 2 -0.9026320407553227 2.685 17.005 0.895 0 0 0
263 2 -0.9026320407553794 0.895 17.005 2.685 0 0 0
264 2 -0.902632040755339 4.475 18.795 0.895 0 0 0
242 3 1.805264081510428 0 17.9 3.58 0 0 0
247 3 1.805264081510515 1.79 19.69 5.37 0 0 0
256 2 -0.9026320407554314 0.895 18.795 4.475 0 0 0
248 3 1.805264081510615 5.37 19.69 1.79 0 0 0
254 2 -0.9026320407553587 6.265 18.795 2.685 0 0 0
270 3 1.805264081510848 8.95 16.11 1.79 0 0 0
283 2 -0.9026320407552698 9.845 17.005 0.895 0 0 0
287 2 -0.9026320407552298 8.055 17.005 2.685 0 0 0
245 3 1.805264081510411 5.37 16.11 5.37 0 0 0
250 2 -0.902632040755422 6.265 17.005 4.475 0 0 0
266 3 1.805264081510718 7.16 17.9 3.58 0 0 0
271 3 1.805264081510651 8.95 19.69 5.37 0 0 0
280 2 -0.9026320407553683 8.055 18.795 4.475 0 0 0
267 3 1.805264081510846 10.74 17.9 0 0 0 0
272 3 1.805264081510732 12.530000000000001 19.69 1.79 0 0 0
278 2 -0.9026320407553594 13.425 18.795 2.685 0 0 0
288 2 -0.9026320407552788 11.635 18.795 0.895 0 0 0
311 2 -0.902632040755229 15.215 17.005 2.685 0 0 0
269 3 1.805264081510578 12.530000000000001 16.11 5.37 0 0 0
274 2 -0.9026320407554164 13.425 17.005 4.475 0 0 0
290 3 1.805264081510672 14.32 17.9 3.58 0 0 0
304 2 -0.9026320407554357 15.215 18.795 4.475 0 0 0
291 3 1.805264081510609 17.9 17.9 0 0 0 0
294 3 1.805264081510812 16.11 16.11 1.79 0 0 0
296 3 1.805264081510765 19.69 19.69 1.79 0 0 0
307 2 -0.9026320407552028 17.005 17.005 0.895 0 0 0
312 2 -0.9026320407553371 18.795 18.795 0.895 0 0 0
293 3 1.805264081510577 19.69 16.11 5.37 0 0 0
295 3 1.805264081510598 16.11 19.69 5.37 0 0 0
302 2 -0.9026320407552602 20.585 18.795 2.685 0 0 0
315 3 1.805264081510751 25.060000000000002 17.9 0 0 0 0
318 3 1.805264081510761 23.27 16.11 1.79 0 0 0
331 2 -0.9026320407552942 24.165 17.005 0.895 0 0 0
335 2 -0.9026320407552771 22.375 17.005 2.685 0 0 0
298 2 -0.9026320407554029 20.585 17.005 4.475 0 0 0
314 3 1.805264081510607 21.48 17.9 3.58 0 0 0
319 3 1.805264081510624 23.27 19.69 5.37 0 0 0
328 2 -0.9026320407553224 22.375 18.795 4.475 0 0 0
320 3 1.805264081510846 26.85 19.69 1.79 0 0 0
326 2 -0.9026320407553275 27.745 18.795 2.685 0 0 0
336 2 -0.9026320407554516 25.955 18.795 0.895 0 0 0
342 3 1.80526408151079 30.43 16.11 1.79 0 0 0
359 2 -0.9026320407551469 29.535 17.005 2.685 0 0 0
317 3 1.805264081510677 26.85 16.11 5.37 0 0 0
322 2 -0.90263204075535 27.745 17.005 4.475 0 0 0
338 3 1.805264081510716 28.64 17.9 3.58 0 0 0
343 3 1.805264081510403 30.43 19.69 5.37 0 0 0
352 2 -0.9026320407555087 29.535 18.795 4.475 0 0 0
339 3 1.805264081510634 32.22 17.9 0 0 0 0
344 3 1.80526408151047 34.01 19.69 1.79 0 0 0
350 2 -0.9026320407553944 34.905 18.795 2.685 0 0 0
355 2 -0.902632040755305 31.325 17.005 0.895 0 0 0
360 2 -0.9026320407553401 33.115 18.795 0.895 0 0 0
341 3 1.80526408151068 34.01 16.11 5.37 0 0 0
346 2 -0.9026320407553986 34.905 17.005 4.475 0 0 0
252 2 -0.9026320407552916 4.475 20.585 2.685 0 0 0
361 3 1.805264081510779 0 21.48 0 0 0 0
363 3 1.805264081510746 3.58 25.060000000000002 0 0 0 0
366 3 1.805264081510567 1.79 23.27 1.79 0 0 0
369 2 -0.9026320407552385 0.895 22.375 0.895 0 0 0
378 2 -0.9026320407553047 2.685 22.375 2.685 0 0 0
379 2 -0.9026320407552758 2.685 24.165 0.895 0 0 0
383 2 -0.9026320407553362 0.895 24.165 2.685 0 0 0
253 2 -0.9026320407554198 2.685 20.585 4.475 0 0 0
362 3 1.805264081510577 0 25.060000000000002 3.58 0 0 0
364 3 1.805264081510683 3.58 21.48 3.58 0 0 0
381 2 -0.9026320407552564 4.475 22.375 4.475 0 0 0
257 2 -0.9026320407551809 6.265 20.585 0.895 0 0 0
385 3 1.805264081510987 7.16 21.48 0 0 0 0
390 3 1.80526408151087 8.95 23.27 1.79 0 0 0
393 2 -0.9026320407551953 8.055 22.375 0.895 0 0 0
402 2 -0.9026320407551006 9.845 22.375 2.685 0 0 0
403 2 -0.9026320407552384 9.845 24.165 0.895 0 0 0
407 2 -0.9026320407552018 8.055 24.165 2.685 0 0 0
365 3 1.805264081510556 5.37 23.27 5.37 0 0 0
370 2 -0.902632040755406 6.265 24.165 4.475 0 0 0
277 2 -0.9026320407552124 9.845 20.585 4.475 0 0 0
386 3 1.805264081510837 7.16 25.060000000000002 3.58 0 0 0
276 2 -0.9026320407552119 11.635 20.585 2.685 0 0 0
281 2 -0.9026320407552892 13.425 20.585 0.895 0 0 0
387 3 1.805264081510852 10.74 25.060000000000002 0 0 0 0
409 3 1.805264081510839 14.32 21.48 0 0 0 0
417 2 -0.9026320407552728 15.215 22.375 0.895 0 0 0
431 2 -0.9026320407553259 15.215 24.165 2.685 0 0 0
388 3 1.805264081510909 10.74 21.48 3.58 0 0 0
389 3 1.805264081510576 12.530000000000001 23.27 5.37 0 0 0
394 2 -0.9026320407554373 13.425 24.165 4.475 0 0 0
405 2 -0.9026320407552839 11.635 22.375 4.475 0 0 0
410 3 1.805264081510624 14.32 25.060000000000002 3.58 0 0 0
300 2 -0.902632040755274 18.795 20.585 2.685 0 0 0
411 3 1.805264081510817 17.9 25.060000000000002 0 0 0 0
414 3 1.805264081510783 16.11 23.27 1.79 0 0 0
426 2 -0.9026320407552875 17.005 22.375 2.685 0 0 0
427 2 -0.9026320407552791 17.005 24.165 0.895 0 0 0
301 2 -0.9026320407553921 17.005 20.585 4.475 0 0 0
412 3 1.80526408151061 17.9 21.48 3.58 0 0 0
413 3 1.80526408151071 19.69 23.27 5.37 0 0 0
429 2 -0.902632040755261 18.795 22.375 4.475 0 0 0
305 2 -0.9026320407552826 20.585 20.585 0.895 0 0 0
433 3 1.805264081510734 21.48 21.48 0 0 0 0
435 3 1.805264081510796 25.060000000000002 25.060000000000002 0 0 0 0
438 3 1.805264081510809 23.27 23.27 1.79 0 0 0
441 2 -0.9026320407550943 22.375 22.375 0.895 0 0 0
450 2 -0.9026320407552009 24.165 22.375 2.685 0 0 0
451 2 -0.9026320407552372 24.165 24.165 0.895 0 0 0
455 2 -0.9026320407552109 22.375 24.165 2.685 0 0 0
418 2 -0.9026320407552797 20.585 24.165 4.475 0 0 0
325 2 -0.9026320407553444 24.165 20.585 4.475 0 0 0
434 3 1.805264081510839 21.48 25.060000000000002 3.58 0 0 0
436 3 1.80526408151079 25.060000000000002 21.48 3.58 0 0 0
324 2 -0.9026320407553359 25.955 20.585 2.685 0 0 0
329 2 -0.9026320407552302 27.745 20.585 0.895 0 0 0
457 3 1.805264081511017 28.64 21.48 0 0 0 0
462 3 1.805264081510909 30.43 23.27 1.79 0 0 0
465 2 -0.9026320407551427 29.535 22.375 0.895 0 0 0
479 2 -0.9026320407551208 29.535 24.165 2.685 0 0 0
437 3 1.80526408151065 26.85 23.27 5.37 0 0 0
442 2 -0.9026320407553431 27.745 24.165 4.475 0 0 0
453 2 -0.9026320407554237 25.955 22.375 4.475 0 0 0
458 3 1.805264081510829 28.64 25.060000000000002 3.58 0 0 0
348 2 -0.9026320407554156 33.115 20.585 2.685 0 0 0
353 2 -0.9026320407554981 34.905 20.585 0.895 0 0 0
459 3 1.805264081510581 32.22 25.060000000000002 0 0 0 0
474 2 -0.902632040755224 31.325 22.375 2.685 0 0 0
475 2 -0.9026320407552638 31.325 24.165 0.895 0 0 0
349 2 -0.9026320407554246 31.325 20.585 4.475 0 0 0
460 3 1.80526408151067 32.22 21.48 3.58 0 0 0
461 3 1.805264081510619 34.01 23.27 5.37 0 0 0
466 2 -0.9026320407554178 34.905 24.165 4.475 0 0 0
477 2 -0.9026320407554059 33.115 22.375 4.475 0 0 0
372 2 -0.902632040755215 4.475 27.745 2.685 0 0 0
384 2 -0.9026320407552169 4.475 25.955 0.895 0 0 0
481 3 1.805264081510614 0 28.64 0 0 0 0
486 3 1.805264081510796 1.79 30.43 1.79 0 0 0
489 2 -0.9026320407553163 0.895 29.535 0.895 0 0 0
498 2 -0.9026320407551951 2.685 29.535 2.685 0 0 0
367 3 1.80526408151066 1.79 26.85 5.37 0 0 0
373 2 -0.9026320407552978 2.685 27.745 4.475 0 0 0
376 2 -0.9026320407554415 0.895 25.955 4.475 0 0 0
484 3 1.80526408151088 3.58 28.64 3.58 0 0 0
501 2 -0.9026320407552662 4.475 29.535 4.475 0 0 0
368 3 1.805264081510829 5.37 26.85 1.79 0 0 0
374 2 -0.9026320407552549 6.265 25.955 2.685 0 0 0
377 2 -0.9026320407552061 6.265 27.745 0.895 0 0 0
505 3 1.805264081510753 7.16 28.64 0 0 0 0
510 3 1.805264081510948 8.95 30.43 1.79 0 0 0
513 2 -0.9026320407553577 8.055 29.535 0.895 0 0 0
522 2 -0.902632040755014 9.845 29.535 2.685 0 0 0
485 3 1.805264081510521 5.37 30.43 5.37 0 0 0
391 3 1.805264081510687 8.95 26.85 5.37 0 0 0
397 2 -0.9026320407552133 9.845 27.745 4.475 0 0 0
400 2 -0.9026320407554294 8.055 25.955 4.475 0 0 0
392 3 1.805264081511004 12.530000000000001 26.85 1.79 0 0 0
396 2 -0.9026320407550723 11.635 27.745 2.685 0 0 0
398 2 -0.9026320407553786 13.425 25.955 2.685 0 0 0
401 2 -0.9026320407552761 13.425 27.745 0.895 0 0 0
408 2 -0.9026320407551979 11.635 25.955 0.895 0 0 0
529 3 1.805264081510692 14.32 28.64 0 0 0 0
537 2 -0.9026320407553481 15.215 29.535 0.895 0 0 0
508 3 1.805264081511119 10.74 28.64 3.58 0 0 0
509 3 1.805264081510506 12.530000000000001 30.43 5.37 0 0 0
525 2 -0.902632040755177 11.635 29.535 4.475 0 0 0
424 2 -0.9026320407555873 15.215 25.955 4.475 0 0 0
416 3 1.805264081511005 19.69 26.85 1.79 0 0 0
420 2 -0.9026320407552485 18.795 27.745 2.685 0 0 0
432 2 -0.9026320407553685 18.795 25.955 0.895 0 0 0
534 3 1.805264081510851 16.11 30.43 1.79 0 0 0
546 2 -0.902632040755257 17.005 29.535 2.685 0 0 0
415 3 1.805264081510545 16.11 26.85 5.37 0 0 0
421 2 -0.9026320407553977 17.005 27.745 4.475 0 0 0
532 3 1.805264081510771 17.9 28.64 3.58 0 0 0
533 3 1.805264081510545 19.69 30.43 5.37 0 0 0
549 2 -0.9026320407554669 18.795 29.535 4.475 0 0 0
422 2 -0.9026320407552444 20.585 25.955 2.685 0 0 0
425 2 -0.902632040755239 20.585 27.745 0.895 0 0 0
553 3 1.805264081510894 21.48 28.64 0 0 0 0
558 3 1.805264081510841 23.27 30.43 1.79 0 0 0
561 2 -0.9026320407552687 22.375 29.535 0.895 0 0 0
570 2 -0.902632040755128 24.165 29.535 2.685 0 0 0
439 3 1.805264081510685 23.27 26.85 5.37 0 0 0
445 2 -0.9026320407552745 24.165 27.745 4.475 0 0 0
448 2 -0.9026320407553421 22.375 25.955 4.475 0 0 0
556 3 1.805264081510899 25.060000000000002 28.64 3.58 0 0 0
440 3 1.805264081511227 26.85 26.85 1.79 0 0 0
444 2 -0.9026320407552408 25.955 27.745 2.685 0 0 0
446 2 -0.9026320407552431 27.745 25.955 2.685 0 0 0
449 2 -0.9026320407551282 27.745 27.745 0.895 0 0 0
456 2 -0.9026320407552859 25.955 25.955 0.895 0 0 0
577 3 1.805264081510725 28.64 28.64 0 0 0 0
582 3 1.805264081510825 30.43 30.43 1.79 0 0 0
585 2 -0.9026320407552352 29.535 29.535 0.895 0 0 0
557 3 1.805264081510689 26.85 30.43 5.37 0 0 0
573 2 -0.9026320407553391 25.955 29.535 4.475 0 0 0
463 3 1.805264081510597 30.43 26.85 5.37 0 0 0
472 2 -0.9026320407554208 29.535 25.955 4.475 0 0 0
464 3 1.805264081510703 34.01 26.85 1.79 0 0 0
468 2 -0.9026320407554556 33.115 27.745 2.685 0 0 0
470 2 -0.9026320407553842 34.905 25.955 2.685 0 0 0
473 2 -0.9026320407553864 34.905 27.745 0.895 0 0 0
480 2 -0.9026320407554257 33.115 25.955 0.895 0 0 0
594 2 -0.9026320407551639 31.325 29.535 2.685 0 0 0
469 2 -0.9026320407553634 31.325 27.745 4.475 0 0 0
580 3 1.80526408151049 32.22 28.64 3.58 0 0 0
581 3 1.805264081510594 34.01 30.43 5.37 0 0 0
597 2 -0.902632040755505 33.115 29.535 4.475 0 0 0
483 3 1.805264081510528 3.58 32.22 0 0 0 0
492 2 -0.902632040755482 4.475 34.905 2.685 0 0 0
499 2 -0.9026320407552483 2.685 31.325 0.895 0 0 0
503 2 -0.9026320407553217 0.895 31.325 2.685 0 0 0
504 2 -0.9026320407554812 4.475 33.115 0.895 0 0 0
482 3 1.805264081510427 0 32.22 3.58 0 0 0
487 3 1.805264081510507 1.79 34.01 5.37 0 0 0
493 2 -0.9026320407553881 2.685 34.905 4.475 0 0 0
496 2 -0.9026320407554657 0.895 33.115 4.475 0 0 0
488 3 1.805264081510433 5.37 34.01 1.79 0 0 0
494 2 -0.9026320407554519 6.265 33.115 2.685 0 0 0
497 2 -0.9026320407554164 6.265 34.905 0.895 0 0 0
523 2 -0.9026320407551562 9.845 31.325 0.895 0 0 0
527 2 -0.9026320407552613 8.055 31.325 2.685 0 0 0
490 2 -0.9026320407553318 6.265 31.325 4.475 0 0 0
506 3 1.805264081510702 7.16 32.22 3.58 0 0 0
511 3 1.805264081510546 8.95 34.01 5.37 0 0 0
517 2 -0.9026320407553469 9.845 34.905 4.475 0 0 0
520 2 -0.9026320407554584 8.055 33.115 4.475 0 0 0
507 3 1.805264081510797 10.74 32.22 0 0 0 0
512 3 1.805264081510645 12.530000000000001 34.01 1.79 0 0 0
516 2 -0.9026320407553887 11.635 34.905 2.685 0 0 0
518 2 -0.9026320407553885 13.425 33.115 2.685 0 0 0
521 2 -0.9026320407554076 13.425 34.905 0.895 0 0 0
528 2 -0.9026320407553088 11.635 33.115 0.895 0 0 0
551 2 -0.9026320407552915 15.215 31.325 2.685 0 0 0
514 2 -0.9026320407554225 13.425 31.325 4.475 0 0 0
530 3 1.80526408151052 14.32 32.22 3.58 0 0 0
544 2 -0.9026320407555077 15.215 33.115 4.475 0 0 0
531 3 1.805264081510666 17.9 32.22 0 0 0 0
536 3 1.805264081510571 19.69 34.01 1.79 0 0 0
540 2 -0.9026320407553537 18.795 34.905 2.685 0 0 0
547 2 -0.90263204075533 17.005 31.325 0.895 0 0 0
552 2 -0.9026320407553229 18.795 33.115 0.895 0 0 0
535 3 1.805264081510548 16.11 34.01 5.37 0 0 0
541 2 -0.9026320407554411 17.005 34.905 4.475 0 0 0
542 2 -0.9026320407554246 20.585 33.115 2.685 0 0 0
545 2 -0.9026320407553502 20.585 34.905 0.895 0 0 0
555 3 1.805264081510712 25.060000000000002 32.22 0 0 0 0
571 2 -0.9026320407553132 24.165 31.325 0.895 0 0 0
575 2 -0.9026320407552504 22.375 31.325 2.685 0 0 0
538 2 -0.9026320407554337 20.585 31.325 4.475 0 0 0
554 3 1.805264081510649 21.48 32.22 3.58 0 0 0
559 3 1.805264081510644 23.27 34.01 5.37 0 0 0
565 2 -0.9026320407554426 24.165 34.905 4.475 0 0 0
568 2 -0.902632040755446 22.375 33.115 4.475 0 0 0
560 3 1.80526408151064 26.85 34.01 1.79 0 0 0
564 2 -0.9026320407554199 25.955 34.905 2.685 0 0 0
566 2 -0.9026320407554097 27.745 33.115 2.685 0 0 0
569 2 -0.902632040755418 27.745 34.905 0.895 0 0 0
576 2 -0.9026320407554251 25.955 33.115 0.895 0 0 0
599 2 -0.9026320407552008 29.535 31.325 2.685 0 0 0
562 2 -0.9026320407553725 27.745 31.325 4.475 0 0 0
578 3 1.805264081510523 28.64 32.22 3.58 0 0 0
583 3 1.805264081510557 30.43 34.01 5.37 0 0 0
592 2 -0.9026320407555203 29.535 33.115 4.475 0 0 0
579 3 1.805264081510395 32.22 32.22 0 0 0 0
584 3 1.805264081510177 34.01 34.01 1.79 0 0 0
588 2 -0.9026320407555194 33.115 34.905 2.685 0 0 0
590 2 -0.902632040755509 34.905 33.115 2.685 0 0 0
593 2 -0.902632040755314 34.905 34.905 0.895 0 0 0
595 2 -0.9026320407553304 31.325 31.325 0.895 0 0 0
600 2 -0.9026320407554256 33.115 33.115 0.895 0 0 0
586 2 -0.9026320407553996 34.905 31.325 4.475 0 0 0
589 2 -0.9026320407554439 31.325 34.905 4.475 0 0 0
601 3 1.805264081510677 0 0 7.16 0 0 0
603 3 1.805264081510372 3.58 3.58 7.16 0 0 0
606 3 1.805264081510634 1.79 1.79 8.95 0 0 0
609 2 -0.9026320407553472 0.895 0.895 8.055 0 0 0
618 2 -0.9026320407553348 2.685 0.895 9.845 0 0 0
619 2 -0.9026320407554614 2.685 2.685 8.055 0 0 0
623 2 -0.9026320407553535 0.895 2.685 9.845 0 0 0
624 2 -0.9026320407554644 4.475 4.475 8.055 0 0 0
11 2 -0.9026320407554197 2.685 4.475 6.265 0 0 0
15 2 -0.9026320407553456 4.475 2.685 6.265 0 0 0
602 3 1.805264081510786 0 3.58 10.74 0 0 0
604 3 1.80526408151089 3.58 0 10.74 0 0 0
616 2 -0.9026320407554818 0.895 4.475 11.635 0 0 0
621 2 -0.902632040755407 4.475 0.895 11.635 0 0 0
614 2 -0.9026320407553455 6.265 4.475 9.845 0 0 0
625 3 1.80526408151097 7.16 0 7.16 0 0 0
630 3 1.805264081510709 8.95 1.79 8.95 0 0 0
633 2 -0.9026320407553724 8.055 0.895 8.055 0 0 0
642 2 -0.902632040755269 9.845 0.895 9.845 0 0 0
643 2 -0.9026320407552711 9.845 2.685 8.055 0 0 0
647 2 -0.9026320407554356 8.055 2.685 9.845 0 0 0
20 2 -0.9026320407552316 6.265 0.895 6.265 0 0 0
610 2 -0.9026320407554054 6.265 2.685 11.635 0 0 0
35 2 -0.9026320407552642 9.845 4.475 6.265 0 0 0
626 3 1.805264081510639 7.16 3.58 10.74 0 0 0
640 2 -0.902632040755504 8.055 4.475 11.635 0 0 0
627 3 1.805264081510822 10.74 3.58 7.16 0 0 0
638 2 -0.9026320407554027 13.425 4.475 9.845 0 0 0
648 2 -0.9026320407552845 11.635 4.475 8.055 0 0 0
649 3 1.805264081510845 14.32 0 7.16 0 0 0
657 2 -0.9026320407553747 15.215 0.895 8.055 0 0 0
671 2 -0.9026320407553819 15.215 2.685 9.845 0 0 0
39 2 -0.902632040755223 11.635 2.685 6.265 0 0 0
44 2 -0.9026320407553268 13.425 0.895 6.265 0 0 0
628 3 1.805264081510999 10.74 0 10.74 0 0 0
634 2 -0.9026320407554081 13.425 2.685 11.635 0 0 0
645 2 -0.9026320407552665 11.635 0.895 11.635 0 0 0
650 3 1.805264081510751 14.32 3.58 10.74 0 0 0
664 2 -0.9026320407554852 15.215 4.475 11.635 0 0 0
651 3 1.805264081510558 17.9 3.58 7.16 0 0 0
654 3 1.805264081510747 16.11 1.79 8.95 0 0 0
666 2 -0.902632040755285 17.005 0.895 9.845 0 0 0
667 2 -0.9026320407552816 17.005 2.685 8.055 0 0 0
672 2 -0.9026320407553825 18.795 4.475 8.055 0 0 0
59 2 -0.9026320407553349 17.005 4.475 6.265 0 0 0
63 2 -0.9026320407553751 18.795 2.685 6.265 0 0 0
652 3 1.805264081510801 17.9 0 10.74 0 0 0
669 2 -0.9026320407553228 18.795 0.895 11.635 0 0 0
662 2 -0.9026320407553879 20.585 4.475 9.845 0 0 0
673 3 1.805264081510826 21.48 0 7.16 0 0 0
675 3 1.805264081510805 25.060000000000002 3.58 7.16 0 0 0
678 3 1.805264081510723 23.27 1.79 8.95 0 0 0
681 2 -0.9026320407553245 22.375 0.895 8.055 0 0 0
690 2 -0.9026320407552724 24.165 0.895 9.845 0 0 0
691 2 -0.9026320407552918 24.165 2.685 8.055 0 0 0
695 2 -0.9026320407553373 22.375 2.685 9.845 0 0 0
68 2 -0.9026320407552613 20.585 0.895 6.265 0 0 0
658 2 -0.9026320407554056 20.585 2.685 11.635 0 0 0
83 2 -0.902632040755361 24.165 4.475 6.265 0 0 0
674 3 1.805264081510725 21.48 3.58 10.74 0 0 0
676 3 1.805264081510835 25.060000000000002 0 10.74 0 0 0
688 2 -0.9026320407553859 22.375 4.475 11.635 0 0 0
686 2 -0.9026320407554129 27.745 4.475 9.845 0 0 0
696 2 -0.9026320407554497 25.955 4.475 8.055 0 0 0
697 3 1.805264081510741 28.64 0 7.16 0 0 0
702 3 1.805264081510759 30.43 1.79 8.95 0 0 0
705 2 -0.9026320407553241 29.535 0.895 8.055 0 0 0
719 2 -0.9026320407552105 29.535 2.685 9.845 0 0 0
87 2 -0.9026320407552691 25.955 2.685 6.265 0 0 0
92 2 -0.9026320407552662 27.745 0.895 6.265 0 0 0
682 2 -0.902632040755314 27.745 2.685 11.635 0 0 0
693 2 -0.9026320407553744 25.955 0.895 11.635 0 0 0
698 3 1.805264081510842 28.64 3.58 10.74 0 0 0
712 2 -0.9026320407552898 29.535 4.475 11.635 0 0 0
699 3 1.805264081510599 32.22 3.58 7.16 0 0 0
710 2 -0.9026320407553149 34.905 4.475 9.845 0 0 0
714 2 -0.9026320407552795 31.325 0.895 9.845 0 0 0
715 2 -0.902632040755261 31.325 2.685 8.055 0 0 0
720 2 -0.9026320407554173 33.115 4.475 8.055 0 0 0
107 2 -0.902632040755285 31.325 4.475 6.265 0 0 0
111 2 -0.9026320407553657 33.115 2.685 6.265 0 0 0
116 2 -0.9026320407553915 34.905 0.895 6.265 0 0 0
700 3 1.805264081510762 32.22 0 10.74 0 0 0
706 2 -0.9026320407553652 34.905 2.685 11.635 0 0 0
717 2 -0.9026320407552986 33.115 0.895 11.635 0 0 0
612 2 -0.9026320407553269 4.475 6.265 9.845 0 0 0
721 3 1.805264081510769 0 7.16 7.16 0 0 0
726 3 1.805264081510727 1.79 8.95 8.95 0 0 0
729 2 -0.902632040755422 0.895 8.055 8.055 0 0 0
738 2 -0.9026320407554043 2.685 8.055 9.845 0 0 0
739 2 -0.9026320407553036 2.685 9.845 8.055 0 0 0
743 2 -0.9026320407552256 0.895 9.845 9.845 0 0 0
22 2 -0.9026320407553541 0.895 6.265 6.265 0 0 0
613 2 -0.9026320407553799 2.685 6.265 11.635 0 0 0
135 2 -0.9026320407553791 4.475 9.845 6.265 0 0 0
724 3 1.805264081510708 3.58 7.16 10.74 0 0 0
741 2 -0.9026320407554759 4.475 8.055 11.635 0 0 0
608 3 1.805264081510579 5.37 5.37 8.95 0 0 0
617 2 -0.9026320407553369 6.265 6.265 8.055 0 0 0
745 3 1.805264081510821 7.16 7.16 7.16 0 0 0
750 3 1.805264081510626 8.95 8.95 8.95 0 0 0