# SiO Silica for TOPCON

9 atoms
3 atom types

0 5.1463944279 xlo xhi
0 5.1463944279 ylo yhi
0 5.1463944279 zlo zhi

Masses

1 28.086 #SI
2 15.999 #O
3 1.0080 #H


Atoms #atom-ID atom-type q x y z

1 1 0.0  2.308807 0.000000 3.603467 
2 1 0.0 -1.154403 1.999485 1.801733
3 1 0.0 -1.154403 -1.999485 0.000000
4 2 0.0 1.375998 1.140800 4.245244  
5 2 0.0 -1.675961 0.621249 7.848711 
6 2 0.0 0.299963 -1.762049 6.046977 
7 2 0.0 0.299963 1.762049 -4.245244 
8 2 0.0 -1.675961 -0.621249 -0.64177
9 2 0.0 1.375998 -1.140800 -2.443511